+ 0 2 3 cbr 210 ------- 0 2.0 3.1 0 1
- 0 2 3 cbr 210 ------- 0 2.0 3.1 0 1
+ 0.00017 0 1 rtProtoDV 6 ------- 0 0.2 1.1 -1 2
- 0.00017 0 1 rtProtoDV 6 ------- 0 0.2 1.1 -1 2
+ 0.00017 0 4 rtProtoDV 6 ------- 0 0.2 4.1 -1 3
- 0.00017 0 4 rtProtoDV 6 ------- 0 0.2 4.1 -1 3
+ 0.00017 0 5 rtProtoDV 6 ------- 0 0.2 5.1 -1 4
- 0.00017 0 5 rtProtoDV 6 ------- 0 0.2 5.1 -1 4
+ 0.00375 2 3 cbr 210 ------- 0 2.0 3.1 1 5
- 0.00375 2 3 cbr 210 ------- 0 2.0 3.1 1 5
+ 0.007102 2 1 rtProtoDV 6 ------- 0 2.2 1.1 -1 6
- 0.007102 2 1 rtProtoDV 6 ------- 0 2.2 1.1 -1 6
+ 0.007102 2 3 rtProtoDV 6 ------- 0 2.2 3.3 -1 7
- 0.007102 2 3 rtProtoDV 6 ------- 0 2.2 3.3 -1 7
+ 0.0075 2 3 cbr 210 ------- 0 2.0 3.1 2 8
- 0.0075 2 3 cbr 210 ------- 0 2.0 3.1 2 8
r 0.010168 2 3 cbr 210 ------- 0 2.0 3.1 0 1
r 0.010175 0 1 rtProtoDV 6 ------- 0 0.2 1.1 -1 2
+ 0.010175 1 0 rtProtoDV 6 ------- 0 1.1 0.2 -1 9
- 0.010175 1 0 rtProtoDV 6 ------- 0 1.1 0.2 -1 9
+ 0.010175 1 2 rtProtoDV 6 ------- 0 1.1 2.2 -1 10
- 0.010175 1 2 rtProtoDV 6 ------- 0 1.1 2.2 -1 10
r 0.010175 0 4 rtProtoDV 6 ------- 0 0.2 4.1 -1 3
+ 0.010175 4 0 rtProtoDV 6 ------- 0 4.1 0.2 -1 11
- 0.010175 4 0 rtProtoDV 6 ------- 0 4.1 0.2 -1 11
+ 0.010175 4 3 rtProtoDV 6 ------- 0 4.1 3.3 -1 12
- 0.010175 4 3 rtProtoDV 6 ------- 0 4.1 3.3 -1 12
+ 0.010175 4 5 rtProtoDV 6 ------- 0 4.1 5.1 -1 13
- 0.010175 4 5 rtProtoDV 6 ------- 0 4.1 5.1 -1 13
r 0.010175 0 5 rtProtoDV 6 ------- 0 0.2 5.1 -1 4
+ 0.010175 5 0 rtProtoDV 6 ------- 0 5.1 0.2 -1 14
- 0.010175 5 0 rtProtoDV 6 ------- 0 5.1 0.2 -1 14
+ 0.010175 5 4 rtProtoDV 6 ------- 0 5.1 4.1 -1 15
- 0.010175 5 4 rtProtoDV 6 ------- 0 5.1 4.1 -1 15
+ 0.01125 2 3 cbr 210 ------- 0 2.0 3.1 3 16
- 0.01125 2 3 cbr 210 ------- 0 2.0 3.1 3 16
r 0.013918 2 3 cbr 210 ------- 0 2.0 3.1 1 5
+ 0.015 2 3 cbr 210 ------- 0 2.0 3.1 4 17
- 0.015 2 3 cbr 210 ------- 0 2.0 3.1 4 17
r 0.017107 2 1 rtProtoDV 6 ------- 0 2.2 1.1 -1 6
+ 0.017107 1 0 rtProtoDV 6 ------- 0 1.1 0.2 -1 18
- 0.017107 1 0 rtProtoDV 6 ------- 0 1.1 0.2 -1 18
+ 0.017107 1 2 rtProtoDV 6 ------- 0 1.1 2.2 -1 19
- 0.017107 1 2 rtProtoDV 6 ------- 0 1.1 2.2 -1 19
r 0.017107 2 3 rtProtoDV 6 ------- 0 2.2 3.3 -1 7
+ 0.017107 3 2 rtProtoDV 6 ------- 0 3.3 2.2 -1 20
- 0.017107 3 2 rtProtoDV 6 ------- 0 3.3 2.2 -1 20
+ 0.017107 3 4 rtProtoDV 6 ------- 0 3.3 4.1 -1 21
- 0.017107 3 4 rtProtoDV 6 ------- 0 3.3 4.1 -1 21
r 0.017668 2 3 cbr 210 ------- 0 2.0 3.1 2 8
+ 0.01875 2 3 cbr 210 ------- 0 2.0 3.1 5 22
- 0.01875 2 3 cbr 210 ------- 0 2.0 3.1 5 22
r 0.020179 1 0 rtProtoDV 6 ------- 0 1.1 0.2 -1 9
+ 0.020179 0 1 rtProtoDV 6 ------- 0 0.2 1.1 -1 23
- 0.020179 0 1 rtProtoDV 6 ------- 0 0.2 1.1 -1 23
+ 0.020179 0 4 rtProtoDV 6 ------- 0 0.2 4.1 -1 24
- 0.020179 0 4 rtProtoDV 6 ------- 0 0.2 4.1 -1 24
+ 0.020179 0 5 rtProtoDV 6 ------- 0 0.2 5.1 -1 25
- 0.020179 0 5 rtProtoDV 6 ------- 0 0.2 5.1 -1 25
r 0.020179 1 2 rtProtoDV 6 ------- 0 1.1 2.2 -1 10
+ 0.020179 2 1 rtProtoDV 6 ------- 0 2.2 1.1 -1 26
- 0.020179 2 1 rtProtoDV 6 ------- 0 2.2 1.1 -1 26
+ 0.020179 2 3 rtProtoDV 6 ------- 0 2.2 3.3 -1 27
- 0.020179 2 3 rtProtoDV 6 ------- 0 2.2 3.3 -1 27
r 0.020179 4 0 rtProtoDV 6 ------- 0 4.1 0.2 -1 11
+ 0.020179 0 1 rtProtoDV 6 ------- 0 0.2 1.1 -1 28
+ 0.020179 0 4 rtProtoDV 6 ------- 0 0.2 4.1 -1 29
+ 0.020179 0 5 rtProtoDV 6 ------- 0 0.2 5.1 -1 30
r 0.020179 4 3 rtProtoDV 6 ------- 0 4.1 3.3 -1 12
+ 0.020179 3 2 rtProtoDV 6 ------- 0 3.3 2.2 -1 31
- 0.020179 3 2 rtProtoDV 6 ------- 0 3.3 2.2 -1 31
+ 0.020179 3 4 rtProtoDV 6 ------- 0 3.3 4.1 -1 32
- 0.020179 3 4 rtProtoDV 6 ------- 0 3.3 4.1 -1 32
r 0.020179 4 5 rtProtoDV 6 ------- 0 4.1 5.1 -1 13
+ 0.020179 5 0 rtProtoDV 6 ------- 0 5.1 0.2 -1 33
- 0.020179 5 0 rtProtoDV 6 ------- 0 5.1 0.2 -1 33
+ 0.020179 5 4 rtProtoDV 6 ------- 0 5.1 4.1 -1 34
- 0.020179 5 4 rtProtoDV 6 ------- 0 5.1 4.1 -1 34
r 0.020179 5 0 rtProtoDV 6 ------- 0 5.1 0.2 -1 14
r 0.020179 5 4 rtProtoDV 6 ------- 0 5.1 4.1 -1 15
- 0.020184 0 1 rtProtoDV 6 ------- 0 0.2 1.1 -1 28
- 0.020184 0 4 rtProtoDV 6 ------- 0 0.2 4.1 -1 29
- 0.020184 0 5 rtProtoDV 6 ------- 0 0.2 5.1 -1 30
r 0.021418 2 3 cbr 210 ------- 0 2.0 3.1 3 16
+ 0.0225 2 3 cbr 210 ------- 0 2.0 3.1 6 35
- 0.0225 2 3 cbr 210 ------- 0 2.0 3.1 6 35
r 0.025168 2 3 cbr 210 ------- 0 2.0 3.1 4 17
+ 0.02625 2 3 cbr 210 ------- 0 2.0 3.1 7 36
- 0.02625 2 3 cbr 210 ------- 0 2.0 3.1 7 36
r 0.027112 1 0 rtProtoDV 6 ------- 0 1.1 0.2 -1 18
r 0.027112 1 2 rtProtoDV 6 ------- 0 1.1 2.2 -1 19
r 0.027112 3 2 rtProtoDV 6 ------- 0 3.3 2.2 -1 20
+ 0.027112 2 1 rtProtoDV 6 ------- 0 2.2 1.1 -1 37
- 0.027112 2 1 rtProtoDV 6 ------- 0 2.2 1.1 -1 37
+ 0.027112 2 3 rtProtoDV 6 ------- 0 2.2 3.3 -1 38
- 0.027112 2 3 rtProtoDV 6 ------- 0 2.2 3.3 -1 38
r 0.027112 3 4 rtProtoDV 6 ------- 0 3.3 4.1 -1 21
+ 0.027112 4 0 rtProtoDV 6 ------- 0 4.1 0.2 -1 39
- 0.027112 4 0 rtProtoDV 6 ------- 0 4.1 0.2 -1 39
+ 0.027112 4 3 rtProtoDV 6 ------- 0 4.1 3.3 -1 40
- 0.027112 4 3 rtProtoDV 6 ------- 0 4.1 3.3 -1 40
+ 0.027112 4 5 rtProtoDV 6 ------- 0 4.1 5.1 -1 41
- 0.027112 4 5 rtProtoDV 6 ------- 0 4.1 5.1 -1 41
r 0.028918 2 3 cbr 210 ------- 0 2.0 3.1 5 22
+ 0.03 2 3 cbr 210 ------- 0 2.0 3.1 8 42
- 0.03 2 3 cbr 210 ------- 0 2.0 3.1 8 42
r 0.030184 0 1 rtProtoDV 6 ------- 0 0.2 1.1 -1 23
r 0.030184 0 4 rtProtoDV 6 ------- 0 0.2 4.1 -1 24
r 0.030184 0 5 rtProtoDV 6 ------- 0 0.2 5.1 -1 25
+ 0.030184 5 0 rtProtoDV 6 ------- 0 5.1 0.2 -1 43
- 0.030184 5 0 rtProtoDV 6 ------- 0 5.1 0.2 -1 43
+ 0.030184 5 4 rtProtoDV 6 ------- 0 5.1 4.1 -1 44
- 0.030184 5 4 rtProtoDV 6 ------- 0 5.1 4.1 -1 44
r 0.030184 2 1 rtProtoDV 6 ------- 0 2.2 1.1 -1 26
r 0.030184 2 3 rtProtoDV 6 ------- 0 2.2 3.3 -1 27
r 0.030184 3 2 rtProtoDV 6 ------- 0 3.3 2.2 -1 31
r 0.030184 3 4 rtProtoDV 6 ------- 0 3.3 4.1 -1 32
r 0.030184 5 0 rtProtoDV 6 ------- 0 5.1 0.2 -1 33
r 0.030184 5 4 rtProtoDV 6 ------- 0 5.1 4.1 -1 34
r 0.030189 0 1 rtProtoDV 6 ------- 0 0.2 1.1 -1 28
r 0.030189 0 4 rtProtoDV 6 ------- 0 0.2 4.1 -1 29
r 0.030189 0 5 rtProtoDV 6 ------- 0 0.2 5.1 -1 30
r 0.032668 2 3 cbr 210 ------- 0 2.0 3.1 6 35
+ 0.03375 2 3 cbr 210 ------- 0 2.0 3.1 9 45
- 0.03375 2 3 cbr 210 ------- 0 2.0 3.1 9 45
r 0.036418 2 3 cbr 210 ------- 0 2.0 3.1 7 36
r 0.037117 2 1 rtProtoDV 6 ------- 0 2.2 1.1 -1 37
r 0.037117 2 3 rtProtoDV 6 ------- 0 2.2 3.3 -1 38
r 0.037117 4 0 rtProtoDV 6 ------- 0 4.1 0.2 -1 39
r 0.037117 4 3 rtProtoDV 6 ------- 0 4.1 3.3 -1 40
r 0.037117 4 5 rtProtoDV 6 ------- 0 4.1 5.1 -1 41
+ 0.0375 2 3 cbr 210 ------- 0 2.0 3.1 10 46
- 0.0375 2 3 cbr 210 ------- 0 2.0 3.1 10 46
r 0.040168 2 3 cbr 210 ------- 0 2.0 3.1 8 42
r 0.040189 5 0 rtProtoDV 6 ------- 0 5.1 0.2 -1 43
r 0.040189 5 4 rtProtoDV 6 ------- 0 5.1 4.1 -1 44
+ 0.04125 2 3 cbr 210 ------- 0 2.0 3.1 11 47
- 0.04125 2 3 cbr 210 ------- 0 2.0 3.1 11 47
r 0.043918 2 3 cbr 210 ------- 0 2.0 3.1 9 45
+ 0.044061 3 2 rtProtoDV 6 ------- 0 3.3 2.2 -1 48
- 0.044061 3 2 rtProtoDV 6 ------- 0 3.3 2.2 -1 48
+ 0.044061 3 4 rtProtoDV 6 ------- 0 3.3 4.1 -1 49
- 0.044061 3 4 rtProtoDV 6 ------- 0 3.3 4.1 -1 49
+ 0.045 2 3 cbr 210 ------- 0 2.0 3.1 12 50
- 0.045 2 3 cbr 210 ------- 0 2.0 3.1 12 50
r 0.047668 2 3 cbr 210 ------- 0 2.0 3.1 10 46
+ 0.04875 2 3 cbr 210 ------- 0 2.0 3.1 13 51
- 0.04875 2 3 cbr 210 ------- 0 2.0 3.1 13 51
r 0.051418 2 3 cbr 210 ------- 0 2.0 3.1 11 47
+ 0.0525 2 3 cbr 210 ------- 0 2.0 3.1 14 52
- 0.0525 2 3 cbr 210 ------- 0 2.0 3.1 14 52
r 0.054066 3 2 rtProtoDV 6 ------- 0 3.3 2.2 -1 48
r 0.054066 3 4 rtProtoDV 6 ------- 0 3.3 4.1 -1 49
r 0.055168 2 3 cbr 210 ------- 0 2.0 3.1 12 50
+ 0.05625 2 3 cbr 210 ------- 0 2.0 3.1 15 53
- 0.05625 2 3 cbr 210 ------- 0 2.0 3.1 15 53
r 0.058918 2 3 cbr 210 ------- 0 2.0 3.1 13 51
+ 0.06 2 3 cbr 210 ------- 0 2.0 3.1 16 54
- 0.06 2 3 cbr 210 ------- 0 2.0 3.1 16 54
r 0.062668 2 3 cbr 210 ------- 0 2.0 3.1 14 52
+ 0.06375 2 3 cbr 210 ------- 0 2.0 3.1 17 55
- 0.06375 2 3 cbr 210 ------- 0 2.0 3.1 17 55
r 0.066418 2 3 cbr 210 ------- 0 2.0 3.1 15 53
+ 0.0675 2 3 cbr 210 ------- 0 2.0 3.1 18 56
- 0.0675 2 3 cbr 210 ------- 0 2.0 3.1 18 56
r 0.070168 2 3 cbr 210 ------- 0 2.0 3.1 16 54
+ 0.07125 2 3 cbr 210 ------- 0 2.0 3.1 19 57
- 0.07125 2 3 cbr 210 ------- 0 2.0 3.1 19 57
r 0.073918 2 3 cbr 210 ------- 0 2.0 3.1 17 55
+ 0.075 2 3 cbr 210 ------- 0 2.0 3.1 20 58
- 0.075 2 3 cbr 210 ------- 0 2.0 3.1 20 58
r 0.077668 2 3 cbr 210 ------- 0 2.0 3.1 18 56
+ 0.07875 2 3 cbr 210 ------- 0 2.0 3.1 21 59
- 0.07875 2 3 cbr 210 ------- 0 2.0 3.1 21 59
r 0.081418 2 3 cbr 210 ------- 0 2.0 3.1 19 57
+ 0.0825 2 3 cbr 210 ------- 0 2.0 3.1 22 60
- 0.0825 2 3 cbr 210 ------- 0 2.0 3.1 22 60
r 0.085168 2 3 cbr 210 ------- 0 2.0 3.1 20 58
+ 0.08625 2 3 cbr 210 ------- 0 2.0 3.1 23 61
- 0.08625 2 3 cbr 210 ------- 0 2.0 3.1 23 61
r 0.088918 2 3 cbr 210 ------- 0 2.0 3.1 21 59
+ 0.09 2 3 cbr 210 ------- 0 2.0 3.1 24 62
- 0.09 2 3 cbr 210 ------- 0 2.0 3.1 24 62
r 0.092668 2 3 cbr 210 ------- 0 2.0 3.1 22 60
+ 0.09375 2 3 cbr 210 ------- 0 2.0 3.1 25 63
- 0.09375 2 3 cbr 210 ------- 0 2.0 3.1 25 63
r 0.096418 2 3 cbr 210 ------- 0 2.0 3.1 23 61
+ 0.0975 2 3 cbr 210 ------- 0 2.0 3.1 26 64
- 0.0975 2 3 cbr 210 ------- 0 2.0 3.1 26 64
r 0.100168 2 3 cbr 210 ------- 0 2.0 3.1 24 62
+ 0.10125 2 3 cbr 210 ------- 0 2.0 3.1 27 65
- 0.10125 2 3 cbr 210 ------- 0 2.0 3.1 27 65
r 0.103918 2 3 cbr 210 ------- 0 2.0 3.1 25 63
+ 0.105 2 3 cbr 210 ------- 0 2.0 3.1 28 66
- 0.105 2 3 cbr 210 ------- 0 2.0 3.1 28 66
r 0.107668 2 3 cbr 210 ------- 0 2.0 3.1 26 64
+ 0.10875 2 3 cbr 210 ------- 0 2.0 3.1 29 67
- 0.10875 2 3 cbr 210 ------- 0 2.0 3.1 29 67
r 0.111418 2 3 cbr 210 ------- 0 2.0 3.1 27 65
+ 0.1125 2 3 cbr 210 ------- 0 2.0 3.1 30 68
- 0.1125 2 3 cbr 210 ------- 0 2.0 3.1 30 68
r 0.115168 2 3 cbr 210 ------- 0 2.0 3.1 28 66
+ 0.11625 2 3 cbr 210 ------- 0 2.0 3.1 31 69
- 0.11625 2 3 cbr 210 ------- 0 2.0 3.1 31 69
r 0.118918 2 3 cbr 210 ------- 0 2.0 3.1 29 67
+ 0.12 2 3 cbr 210 ------- 0 2.0 3.1 32 70
- 0.12 2 3 cbr 210 ------- 0 2.0 3.1 32 70
r 0.122668 2 3 cbr 210 ------- 0 2.0 3.1 30 68
+ 0.12375 2 3 cbr 210 ------- 0 2.0 3.1 33 71
- 0.12375 2 3 cbr 210 ------- 0 2.0 3.1 33 71
r 0.126418 2 3 cbr 210 ------- 0 2.0 3.1 31 69
+ 0.1275 2 3 cbr 210 ------- 0 2.0 3.1 34 72
- 0.1275 2 3 cbr 210 ------- 0 2.0 3.1 34 72
r 0.130168 2 3 cbr 210 ------- 0 2.0 3.1 32 70
+ 0.13125 2 3 cbr 210 ------- 0 2.0 3.1 35 73
- 0.13125 2 3 cbr 210 ------- 0 2.0 3.1 35 73
r 0.133918 2 3 cbr 210 ------- 0 2.0 3.1 33 71
+ 0.135 2 3 cbr 210 ------- 0 2.0 3.1 36 74
- 0.135 2 3 cbr 210 ------- 0 2.0 3.1 36 74
r 0.137668 2 3 cbr 210 ------- 0 2.0 3.1 34 72
+ 0.13875 2 3 cbr 210 ------- 0 2.0 3.1 37 75
- 0.13875 2 3 cbr 210 ------- 0 2.0 3.1 37 75
r 0.141418 2 3 cbr 210 ------- 0 2.0 3.1 35 73
+ 0.1425 2 3 cbr 210 ------- 0 2.0 3.1 38 76
- 0.1425 2 3 cbr 210 ------- 0 2.0 3.1 38 76
r 0.145168 2 3 cbr 210 ------- 0 2.0 3.1 36 74
+ 0.14625 2 3 cbr 210 ------- 0 2.0 3.1 39 77
- 0.14625 2 3 cbr 210 ------- 0 2.0 3.1 39 77
r 0.148918 2 3 cbr 210 ------- 0 2.0 3.1 37 75
+ 0.15 2 3 cbr 210 ------- 0 2.0 3.1 40 78
- 0.15 2 3 cbr 210 ------- 0 2.0 3.1 40 78
r 0.152668 2 3 cbr 210 ------- 0 2.0 3.1 38 76
+ 0.15375 2 3 cbr 210 ------- 0 2.0 3.1 41 79
- 0.15375 2 3 cbr 210 ------- 0 2.0 3.1 41 79
r 0.156418 2 3 cbr 210 ------- 0 2.0 3.1 39 77
+ 0.1575 2 3 cbr 210 ------- 0 2.0 3.1 42 80
- 0.1575 2 3 cbr 210 ------- 0 2.0 3.1 42 80
r 0.160168 2 3 cbr 210 ------- 0 2.0 3.1 40 78
+ 0.16125 2 3 cbr 210 ------- 0 2.0 3.1 43 81
- 0.16125 2 3 cbr 210 ------- 0 2.0 3.1 43 81
r 0.163918 2 3 cbr 210 ------- 0 2.0 3.1 41 79
+ 0.165 2 3 cbr 210 ------- 0 2.0 3.1 44 82
- 0.165 2 3 cbr 210 ------- 0 2.0 3.1 44 82
r 0.167668 2 3 cbr 210 ------- 0 2.0 3.1 42 80
+ 0.16875 2 3 cbr 210 ------- 0 2.0 3.1 45 83
- 0.16875 2 3 cbr 210 ------- 0 2.0 3.1 45 83
r 0.171418 2 3 cbr 210 ------- 0 2.0 3.1 43 81
+ 0.1725 2 3 cbr 210 ------- 0 2.0 3.1 46 84
- 0.1725 2 3 cbr 210 ------- 0 2.0 3.1 46 84
r 0.175168 2 3 cbr 210 ------- 0 2.0 3.1 44 82
+ 0.17625 2 3 cbr 210 ------- 0 2.0 3.1 47 85
- 0.17625 2 3 cbr 210 ------- 0 2.0 3.1 47 85
r 0.178918 2 3 cbr 210 ------- 0 2.0 3.1 45 83
+ 0.18 2 3 cbr 210 ------- 0 2.0 3.1 48 86
- 0.18 2 3 cbr 210 ------- 0 2.0 3.1 48 86
r 0.182668 2 3 cbr 210 ------- 0 2.0 3.1 46 84
+ 0.18375 2 3 cbr 210 ------- 0 2.0 3.1 49 87
- 0.18375 2 3 cbr 210 ------- 0 2.0 3.1 49 87
r 0.186418 2 3 cbr 210 ------- 0 2.0 3.1 47 85
+ 0.1875 2 3 cbr 210 ------- 0 2.0 3.1 50 88
- 0.1875 2 3 cbr 210 ------- 0 2.0 3.1 50 88
r 0.190168 2 3 cbr 210 ------- 0 2.0 3.1 48 86
+ 0.19125 2 3 cbr 210 ------- 0 2.0 3.1 51 89
- 0.19125 2 3 cbr 210 ------- 0 2.0 3.1 51 89
r 0.193918 2 3 cbr 210 ------- 0 2.0 3.1 49 87
+ 0.195 2 3 cbr 210 ------- 0 2.0 3.1 52 90
- 0.195 2 3 cbr 210 ------- 0 2.0 3.1 52 90
r 0.197668 2 3 cbr 210 ------- 0 2.0 3.1 50 88
+ 0.19875 2 3 cbr 210 ------- 0 2.0 3.1 53 91
- 0.19875 2 3 cbr 210 ------- 0 2.0 3.1 53 91
r 0.201418 2 3 cbr 210 ------- 0 2.0 3.1 51 89
+ 0.2025 2 3 cbr 210 ------- 0 2.0 3.1 54 92
- 0.2025 2 3 cbr 210 ------- 0 2.0 3.1 54 92
r 0.205168 2 3 cbr 210 ------- 0 2.0 3.1 52 90
+ 0.20625 2 3 cbr 210 ------- 0 2.0 3.1 55 93
- 0.20625 2 3 cbr 210 ------- 0 2.0 3.1 55 93
r 0.208918 2 3 cbr 210 ------- 0 2.0 3.1 53 91
+ 0.21 2 3 cbr 210 ------- 0 2.0 3.1 56 94
- 0.21 2 3 cbr 210 ------- 0 2.0 3.1 56 94
r 0.212668 2 3 cbr 210 ------- 0 2.0 3.1 54 92
+ 0.21375 2 3 cbr 210 ------- 0 2.0 3.1 57 95
- 0.21375 2 3 cbr 210 ------- 0 2.0 3.1 57 95
r 0.216418 2 3 cbr 210 ------- 0 2.0 3.1 55 93
+ 0.2175 2 3 cbr 210 ------- 0 2.0 3.1 58 96
- 0.2175 2 3 cbr 210 ------- 0 2.0 3.1 58 96
r 0.220168 2 3 cbr 210 ------- 0 2.0 3.1 56 94
+ 0.220587 4 0 rtProtoDV 6 ------- 0 4.1 0.2 -1 97
- 0.220587 4 0 rtProtoDV 6 ------- 0 4.1 0.2 -1 97
+ 0.220587 4 3 rtProtoDV 6 ------- 0 4.1 3.3 -1 98
- 0.220587 4 3 rtProtoDV 6 ------- 0 4.1 3.3 -1 98
+ 0.220587 4 5 rtProtoDV 6 ------- 0 4.1 5.1 -1 99
- 0.220587 4 5 rtProtoDV 6 ------- 0 4.1 5.1 -1 99
+ 0.22125 2 3 cbr 210 ------- 0 2.0 3.1 59 100
- 0.22125 2 3 cbr 210 ------- 0 2.0 3.1 59 100
r 0.223918 2 3 cbr 210 ------- 0 2.0 3.1 57 95
+ 0.225 2 3 cbr 210 ------- 0 2.0 3.1 60 101
- 0.225 2 3 cbr 210 ------- 0 2.0 3.1 60 101
r 0.227668 2 3 cbr 210 ------- 0 2.0 3.1 58 96
+ 0.22875 2 3 cbr 210 ------- 0 2.0 3.1 61 102
- 0.22875 2 3 cbr 210 ------- 0 2.0 3.1 61 102
r 0.230591 4 0 rtProtoDV 6 ------- 0 4.1 0.2 -1 97
r 0.230591 4 3 rtProtoDV 6 ------- 0 4.1 3.3 -1 98
r 0.230591 4 5 rtProtoDV 6 ------- 0 4.1 5.1 -1 99
r 0.231418 2 3 cbr 210 ------- 0 2.0 3.1 59 100
+ 0.2325 2 3 cbr 210 ------- 0 2.0 3.1 62 103
- 0.2325 2 3 cbr 210 ------- 0 2.0 3.1 62 103
r 0.235168 2 3 cbr 210 ------- 0 2.0 3.1 60 101
+ 0.23625 2 3 cbr 210 ------- 0 2.0 3.1 63 104
- 0.23625 2 3 cbr 210 ------- 0 2.0 3.1 63 104
r 0.238918 2 3 cbr 210 ------- 0 2.0 3.1 61 102
+ 0.24 2 3 cbr 210 ------- 0 2.0 3.1 64 105
- 0.24 2 3 cbr 210 ------- 0 2.0 3.1 64 105
r 0.242668 2 3 cbr 210 ------- 0 2.0 3.1 62 103
+ 0.24375 2 3 cbr 210 ------- 0 2.0 3.1 65 106
- 0.24375 2 3 cbr 210 ------- 0 2.0 3.1 65 106
r 0.246418 2 3 cbr 210 ------- 0 2.0 3.1 63 104
+ 0.2475 2 3 cbr 210 ------- 0 2.0 3.1 66 107
- 0.2475 2 3 cbr 210 ------- 0 2.0 3.1 66 107
r 0.250168 2 3 cbr 210 ------- 0 2.0 3.1 64 105
+ 0.25125 2 3 cbr 210 ------- 0 2.0 3.1 67 108
- 0.25125 2 3 cbr 210 ------- 0 2.0 3.1 67 108
r 0.253918 2 3 cbr 210 ------- 0 2.0 3.1 65 106
+ 0.255 2 3 cbr 210 ------- 0 2.0 3.1 68 109
- 0.255 2 3 cbr 210 ------- 0 2.0 3.1 68 109
r 0.257668 2 3 cbr 210 ------- 0 2.0 3.1 66 107
+ 0.25875 2 3 cbr 210 ------- 0 2.0 3.1 69 110
- 0.25875 2 3 cbr 210 ------- 0 2.0 3.1 69 110
r 0.261418 2 3 cbr 210 ------- 0 2.0 3.1 67 108
+ 0.2625 2 3 cbr 210 ------- 0 2.0 3.1 70 111
- 0.2625 2 3 cbr 210 ------- 0 2.0 3.1 70 111
r 0.265168 2 3 cbr 210 ------- 0 2.0 3.1 68 109
+ 0.26625 2 3 cbr 210 ------- 0 2.0 3.1 71 112
- 0.26625 2 3 cbr 210 ------- 0 2.0 3.1 71 112
r 0.268918 2 3 cbr 210 ------- 0 2.0 3.1 69 110
+ 0.27 2 3 cbr 210 ------- 0 2.0 3.1 72 113
- 0.27 2 3 cbr 210 ------- 0 2.0 3.1 72 113
r 0.272668 2 3 cbr 210 ------- 0 2.0 3.1 70 111
+ 0.27375 2 3 cbr 210 ------- 0 2.0 3.1 73 114
- 0.27375 2 3 cbr 210 ------- 0 2.0 3.1 73 114
r 0.276418 2 3 cbr 210 ------- 0 2.0 3.1 71 112
+ 0.2775 2 3 cbr 210 ------- 0 2.0 3.1 74 115
- 0.2775 2 3 cbr 210 ------- 0 2.0 3.1 74 115
+ 0.27794 1 0 rtProtoDV 6 ------- 0 1.1 0.2 -1 116
- 0.27794 1 0 rtProtoDV 6 ------- 0 1.1 0.2 -1 116
+ 0.27794 1 2 rtProtoDV 6 ------- 0 1.1 2.2 -1 117
- 0.27794 1 2 rtProtoDV 6 ------- 0 1.1 2.2 -1 117
r 0.280168 2 3 cbr 210 ------- 0 2.0 3.1 72 113
+ 0.28125 2 3 cbr 210 ------- 0 2.0 3.1 75 118
- 0.28125 2 3 cbr 210 ------- 0 2.0 3.1 75 118
r 0.283918 2 3 cbr 210 ------- 0 2.0 3.1 73 114
+ 0.285 2 3 cbr 210 ------- 0 2.0 3.1 76 119
- 0.285 2 3 cbr 210 ------- 0 2.0 3.1 76 119
r 0.287668 2 3 cbr 210 ------- 0 2.0 3.1 74 115
r 0.287945 1 0 rtProtoDV 6 ------- 0 1.1 0.2 -1 116
r 0.287945 1 2 rtProtoDV 6 ------- 0 1.1 2.2 -1 117
+ 0.28875 2 3 cbr 210 ------- 0 2.0 3.1 77 120
- 0.28875 2 3 cbr 210 ------- 0 2.0 3.1 77 120
r 0.291418 2 3 cbr 210 ------- 0 2.0 3.1 75 118
+ 0.2925 2 3 cbr 210 ------- 0 2.0 3.1 78 121
- 0.2925 2 3 cbr 210 ------- 0 2.0 3.1 78 121
r 0.295168 2 3 cbr 210 ------- 0 2.0 3.1 76 119
+ 0.29625 2 3 cbr 210 ------- 0 2.0 3.1 79 122
- 0.29625 2 3 cbr 210 ------- 0 2.0 3.1 79 122
r 0.298918 2 3 cbr 210 ------- 0 2.0 3.1 77 120
+ 0.3 2 3 cbr 210 ------- 0 2.0 3.1 80 123
- 0.3 2 3 cbr 210 ------- 0 2.0 3.1 80 123
r 0.302668 2 3 cbr 210 ------- 0 2.0 3.1 78 121
+ 0.30375 2 3 cbr 210 ------- 0 2.0 3.1 81 124
- 0.30375 2 3 cbr 210 ------- 0 2.0 3.1 81 124
r 0.306418 2 3 cbr 210 ------- 0 2.0 3.1 79 122
+ 0.3075 2 3 cbr 210 ------- 0 2.0 3.1 82 125
- 0.3075 2 3 cbr 210 ------- 0 2.0 3.1 82 125
r 0.310168 2 3 cbr 210 ------- 0 2.0 3.1 80 123
+ 0.31125 2 3 cbr 210 ------- 0 2.0 3.1 83 126
- 0.31125 2 3 cbr 210 ------- 0 2.0 3.1 83 126
r 0.313918 2 3 cbr 210 ------- 0 2.0 3.1 81 124
+ 0.315 2 3 cbr 210 ------- 0 2.0 3.1 84 127
- 0.315 2 3 cbr 210 ------- 0 2.0 3.1 84 127
r 0.317668 2 3 cbr 210 ------- 0 2.0 3.1 82 125
+ 0.31875 2 3 cbr 210 ------- 0 2.0 3.1 85 128
- 0.31875 2 3 cbr 210 ------- 0 2.0 3.1 85 128
r 0.321418 2 3 cbr 210 ------- 0 2.0 3.1 83 126
+ 0.3225 2 3 cbr 210 ------- 0 2.0 3.1 86 129
- 0.3225 2 3 cbr 210 ------- 0 2.0 3.1 86 129
r 0.325168 2 3 cbr 210 ------- 0 2.0 3.1 84 127
+ 0.32625 2 3 cbr 210 ------- 0 2.0 3.1 87 130
- 0.32625 2 3 cbr 210 ------- 0 2.0 3.1 87 130
r 0.328918 2 3 cbr 210 ------- 0 2.0 3.1 85 128
+ 0.33 2 3 cbr 210 ------- 0 2.0 3.1 88 131
- 0.33 2 3 cbr 210 ------- 0 2.0 3.1 88 131
r 0.332668 2 3 cbr 210 ------- 0 2.0 3.1 86 129
+ 0.33375 2 3 cbr 210 ------- 0 2.0 3.1 89 132
- 0.33375 2 3 cbr 210 ------- 0 2.0 3.1 89 132
r 0.336418 2 3 cbr 210 ------- 0 2.0 3.1 87 130
+ 0.3375 2 3 cbr 210 ------- 0 2.0 3.1 90 133
- 0.3375 2 3 cbr 210 ------- 0 2.0 3.1 90 133
r 0.340168 2 3 cbr 210 ------- 0 2.0 3.1 88 131
+ 0.34125 2 3 cbr 210 ------- 0 2.0 3.1 91 134
- 0.34125 2 3 cbr 210 ------- 0 2.0 3.1 91 134
r 0.343918 2 3 cbr 210 ------- 0 2.0 3.1 89 132
+ 0.345 2 3 cbr 210 ------- 0 2.0 3.1 92 135
- 0.345 2 3 cbr 210 ------- 0 2.0 3.1 92 135
r 0.347668 2 3 cbr 210 ------- 0 2.0 3.1 90 133
+ 0.34875 2 3 cbr 210 ------- 0 2.0 3.1 93 136
- 0.34875 2 3 cbr 210 ------- 0 2.0 3.1 93 136
r 0.351418 2 3 cbr 210 ------- 0 2.0 3.1 91 134
+ 0.3525 2 3 cbr 210 ------- 0 2.0 3.1 94 137
- 0.3525 2 3 cbr 210 ------- 0 2.0 3.1 94 137
r 0.355168 2 3 cbr 210 ------- 0 2.0 3.1 92 135
+ 0.35625 2 3 cbr 210 ------- 0 2.0 3.1 95 138
- 0.35625 2 3 cbr 210 ------- 0 2.0 3.1 95 138
r 0.358918 2 3 cbr 210 ------- 0 2.0 3.1 93 136
+ 0.36 2 3 cbr 210 ------- 0 2.0 3.1 96 139
- 0.36 2 3 cbr 210 ------- 0 2.0 3.1 96 139
r 0.362668 2 3 cbr 210 ------- 0 2.0 3.1 94 137
+ 0.36375 2 3 cbr 210 ------- 0 2.0 3.1 97 140
- 0.36375 2 3 cbr 210 ------- 0 2.0 3.1 97 140
r 0.366418 2 3 cbr 210 ------- 0 2.0 3.1 95 138
+ 0.3675 2 3 cbr 210 ------- 0 2.0 3.1 98 141
- 0.3675 2 3 cbr 210 ------- 0 2.0 3.1 98 141
r 0.370168 2 3 cbr 210 ------- 0 2.0 3.1 96 139
+ 0.37125 2 3 cbr 210 ------- 0 2.0 3.1 99 142
- 0.37125 2 3 cbr 210 ------- 0 2.0 3.1 99 142
r 0.373918 2 3 cbr 210 ------- 0 2.0 3.1 97 140
+ 0.375 2 3 cbr 210 ------- 0 2.0 3.1 100 143
- 0.375 2 3 cbr 210 ------- 0 2.0 3.1 100 143
r 0.377668 2 3 cbr 210 ------- 0 2.0 3.1 98 141
+ 0.37875 2 3 cbr 210 ------- 0 2.0 3.1 101 144
- 0.37875 2 3 cbr 210 ------- 0 2.0 3.1 101 144
r 0.381418 2 3 cbr 210 ------- 0 2.0 3.1 99 142
+ 0.3825 2 3 cbr 210 ------- 0 2.0 3.1 102 145
- 0.3825 2 3 cbr 210 ------- 0 2.0 3.1 102 145
r 0.385168 2 3 cbr 210 ------- 0 2.0 3.1 100 143
+ 0.38625 2 3 cbr 210 ------- 0 2.0 3.1 103 146
- 0.38625 2 3 cbr 210 ------- 0 2.0 3.1 103 146
r 0.388918 2 3 cbr 210 ------- 0 2.0 3.1 101 144
+ 0.39 2 3 cbr 210 ------- 0 2.0 3.1 104 147
- 0.39 2 3 cbr 210 ------- 0 2.0 3.1 104 147
r 0.392668 2 3 cbr 210 ------- 0 2.0 3.1 102 145
+ 0.39375 2 3 cbr 210 ------- 0 2.0 3.1 105 148
- 0.39375 2 3 cbr 210 ------- 0 2.0 3.1 105 148
r 0.396418 2 3 cbr 210 ------- 0 2.0 3.1 103 146
+ 0.3975 2 3 cbr 210 ------- 0 2.0 3.1 106 149
- 0.3975 2 3 cbr 210 ------- 0 2.0 3.1 106 149
+ 0.399578 5 0 rtProtoDV 6 ------- 0 5.1 0.2 -1 150
- 0.399578 5 0 rtProtoDV 6 ------- 0 5.1 0.2 -1 150
+ 0.399578 5 4 rtProtoDV 6 ------- 0 5.1 4.1 -1 151
- 0.399578 5 4 rtProtoDV 6 ------- 0 5.1 4.1 -1 151
r 0.400168 2 3 cbr 210 ------- 0 2.0 3.1 104 147
+ 0.40125 2 3 cbr 210 ------- 0 2.0 3.1 107 152
- 0.40125 2 3 cbr 210 ------- 0 2.0 3.1 107 152
r 0.403918 2 3 cbr 210 ------- 0 2.0 3.1 105 148
+ 0.405 2 3 cbr 210 ------- 0 2.0 3.1 108 153
- 0.405 2 3 cbr 210 ------- 0 2.0 3.1 108 153
r 0.407668 2 3 cbr 210 ------- 0 2.0 3.1 106 149
+ 0.40875 2 3 cbr 210 ------- 0 2.0 3.1 109 154
- 0.40875 2 3 cbr 210 ------- 0 2.0 3.1 109 154
r 0.409583 5 0 rtProtoDV 6 ------- 0 5.1 0.2 -1 150
r 0.409583 5 4 rtProtoDV 6 ------- 0 5.1 4.1 -1 151
r 0.411418 2 3 cbr 210 ------- 0 2.0 3.1 107 152
+ 0.4125 2 3 cbr 210 ------- 0 2.0 3.1 110 155
- 0.4125 2 3 cbr 210 ------- 0 2.0 3.1 110 155
r 0.415168 2 3 cbr 210 ------- 0 2.0 3.1 108 153
+ 0.41625 2 3 cbr 210 ------- 0 2.0 3.1 111 156
- 0.41625 2 3 cbr 210 ------- 0 2.0 3.1 111 156
r 0.418918 2 3 cbr 210 ------- 0 2.0 3.1 109 154
+ 0.42 2 3 cbr 210 ------- 0 2.0 3.1 112 157
- 0.42 2 3 cbr 210 ------- 0 2.0 3.1 112 157
r 0.422668 2 3 cbr 210 ------- 0 2.0 3.1 110 155
+ 0.42375 2 3 cbr 210 ------- 0 2.0 3.1 113 158
- 0.42375 2 3 cbr 210 ------- 0 2.0 3.1 113 158
r 0.426418 2 3 cbr 210 ------- 0 2.0 3.1 111 156
+ 0.4275 2 3 cbr 210 ------- 0 2.0 3.1 114 159
- 0.4275 2 3 cbr 210 ------- 0 2.0 3.1 114 159
r 0.430168 2 3 cbr 210 ------- 0 2.0 3.1 112 157
+ 0.43125 2 3 cbr 210 ------- 0 2.0 3.1 115 160
- 0.43125 2 3 cbr 210 ------- 0 2.0 3.1 115 160
r 0.433918 2 3 cbr 210 ------- 0 2.0 3.1 113 158
+ 0.435 2 3 cbr 210 ------- 0 2.0 3.1 116 161
- 0.435 2 3 cbr 210 ------- 0 2.0 3.1 116 161
r 0.437668 2 3 cbr 210 ------- 0 2.0 3.1 114 159
+ 0.43875 2 3 cbr 210 ------- 0 2.0 3.1 117 162
- 0.43875 2 3 cbr 210 ------- 0 2.0 3.1 117 162
r 0.441418 2 3 cbr 210 ------- 0 2.0 3.1 115 160
+ 0.4425 2 3 cbr 210 ------- 0 2.0 3.1 118 163
- 0.4425 2 3 cbr 210 ------- 0 2.0 3.1 118 163
r 0.445168 2 3 cbr 210 ------- 0 2.0 3.1 116 161
+ 0.44625 2 3 cbr 210 ------- 0 2.0 3.1 119 164
- 0.44625 2 3 cbr 210 ------- 0 2.0 3.1 119 164
r 0.448918 2 3 cbr 210 ------- 0 2.0 3.1 117 162
+ 0.45 2 3 cbr 210 ------- 0 2.0 3.1 120 165
- 0.45 2 3 cbr 210 ------- 0 2.0 3.1 120 165
r 0.452668 2 3 cbr 210 ------- 0 2.0 3.1 118 163
+ 0.45375 2 3 cbr 210 ------- 0 2.0 3.1 121 166
- 0.45375 2 3 cbr 210 ------- 0 2.0 3.1 121 166
r 0.456418 2 3 cbr 210 ------- 0 2.0 3.1 119 164
+ 0.4575 2 3 cbr 210 ------- 0 2.0 3.1 122 167
- 0.4575 2 3 cbr 210 ------- 0 2.0 3.1 122 167
r 0.460168 2 3 cbr 210 ------- 0 2.0 3.1 120 165
+ 0.46125 2 3 cbr 210 ------- 0 2.0 3.1 123 168
- 0.46125 2 3 cbr 210 ------- 0 2.0 3.1 123 168
r 0.463918 2 3 cbr 210 ------- 0 2.0 3.1 121 166
+ 0.465 2 3 cbr 210 ------- 0 2.0 3.1 124 169
- 0.465 2 3 cbr 210 ------- 0 2.0 3.1 124 169
r 0.467668 2 3 cbr 210 ------- 0 2.0 3.1 122 167
+ 0.46875 2 3 cbr 210 ------- 0 2.0 3.1 125 170
- 0.46875 2 3 cbr 210 ------- 0 2.0 3.1 125 170
r 0.471418 2 3 cbr 210 ------- 0 2.0 3.1 123 168
+ 0.4725 2 3 cbr 210 ------- 0 2.0 3.1 126 171
- 0.4725 2 3 cbr 210 ------- 0 2.0 3.1 126 171
r 0.475168 2 3 cbr 210 ------- 0 2.0 3.1 124 169
+ 0.47625 2 3 cbr 210 ------- 0 2.0 3.1 127 172
- 0.47625 2 3 cbr 210 ------- 0 2.0 3.1 127 172
r 0.478918 2 3 cbr 210 ------- 0 2.0 3.1 125 170
+ 0.48 2 3 cbr 210 ------- 0 2.0 3.1 128 173
- 0.48 2 3 cbr 210 ------- 0 2.0 3.1 128 173
r 0.482668 2 3 cbr 210 ------- 0 2.0 3.1 126 171
+ 0.48375 2 3 cbr 210 ------- 0 2.0 3.1 129 174
- 0.48375 2 3 cbr 210 ------- 0 2.0 3.1 129 174
r 0.486418 2 3 cbr 210 ------- 0 2.0 3.1 127 172
+ 0.4875 2 3 cbr 210 ------- 0 2.0 3.1 130 175
- 0.4875 2 3 cbr 210 ------- 0 2.0 3.1 130 175
r 0.490168 2 3 cbr 210 ------- 0 2.0 3.1 128 173
+ 0.49125 2 3 cbr 210 ------- 0 2.0 3.1 131 176
- 0.49125 2 3 cbr 210 ------- 0 2.0 3.1 131 176
r 0.493918 2 3 cbr 210 ------- 0 2.0 3.1 129 174
+ 0.495 2 3 cbr 210 ------- 0 2.0 3.1 132 177
- 0.495 2 3 cbr 210 ------- 0 2.0 3.1 132 177
r 0.497668 2 3 cbr 210 ------- 0 2.0 3.1 130 175
+ 0.49875 2 3 cbr 210 ------- 0 2.0 3.1 133 178
- 0.49875 2 3 cbr 210 ------- 0 2.0 3.1 133 178
r 0.501418 2 3 cbr 210 ------- 0 2.0 3.1 131 176
+ 0.5025 2 3 cbr 210 ------- 0 2.0 3.1 134 179
- 0.5025 2 3 cbr 210 ------- 0 2.0 3.1 134 179
r 0.505168 2 3 cbr 210 ------- 0 2.0 3.1 132 177
+ 0.50625 2 3 cbr 210 ------- 0 2.0 3.1 135 180
- 0.50625 2 3 cbr 210 ------- 0 2.0 3.1 135 180
r 0.508918 2 3 cbr 210 ------- 0 2.0 3.1 133 178
+ 0.51 2 3 cbr 210 ------- 0 2.0 3.1 136 181
- 0.51 2 3 cbr 210 ------- 0 2.0 3.1 136 181
r 0.512668 2 3 cbr 210 ------- 0 2.0 3.1 134 179
+ 0.51375 2 3 cbr 210 ------- 0 2.0 3.1 137 182
- 0.51375 2 3 cbr 210 ------- 0 2.0 3.1 137 182
r 0.516418 2 3 cbr 210 ------- 0 2.0 3.1 135 180
+ 0.5175 2 3 cbr 210 ------- 0 2.0 3.1 138 183
- 0.5175 2 3 cbr 210 ------- 0 2.0 3.1 138 183
r 0.520168 2 3 cbr 210 ------- 0 2.0 3.1 136 181
+ 0.52125 2 3 cbr 210 ------- 0 2.0 3.1 139 184
- 0.52125 2 3 cbr 210 ------- 0 2.0 3.1 139 184
r 0.523918 2 3 cbr 210 ------- 0 2.0 3.1 137 182
+ 0.525 2 3 cbr 210 ------- 0 2.0 3.1 140 185
- 0.525 2 3 cbr 210 ------- 0 2.0 3.1 140 185
r 0.527668 2 3 cbr 210 ------- 0 2.0 3.1 138 183
+ 0.52875 2 3 cbr 210 ------- 0 2.0 3.1 141 186
- 0.52875 2 3 cbr 210 ------- 0 2.0 3.1 141 186
r 0.531418 2 3 cbr 210 ------- 0 2.0 3.1 139 184
+ 0.5325 2 3 cbr 210 ------- 0 2.0 3.1 142 187
- 0.5325 2 3 cbr 210 ------- 0 2.0 3.1 142 187
r 0.535168 2 3 cbr 210 ------- 0 2.0 3.1 140 185
+ 0.53625 2 3 cbr 210 ------- 0 2.0 3.1 143 188
- 0.53625 2 3 cbr 210 ------- 0 2.0 3.1 143 188
r 0.538918 2 3 cbr 210 ------- 0 2.0 3.1 141 186
+ 0.54 2 3 cbr 210 ------- 0 2.0 3.1 144 189
- 0.54 2 3 cbr 210 ------- 0 2.0 3.1 144 189
r 0.542668 2 3 cbr 210 ------- 0 2.0 3.1 142 187
+ 0.54375 2 3 cbr 210 ------- 0 2.0 3.1 145 190
- 0.54375 2 3 cbr 210 ------- 0 2.0 3.1 145 190
r 0.546418 2 3 cbr 210 ------- 0 2.0 3.1 143 188
+ 0.5475 2 3 cbr 210 ------- 0 2.0 3.1 146 191
- 0.5475 2 3 cbr 210 ------- 0 2.0 3.1 146 191
r 0.550168 2 3 cbr 210 ------- 0 2.0 3.1 144 189
+ 0.55125 2 3 cbr 210 ------- 0 2.0 3.1 147 192
- 0.55125 2 3 cbr 210 ------- 0 2.0 3.1 147 192
r 0.553918 2 3 cbr 210 ------- 0 2.0 3.1 145 190
+ 0.555 2 3 cbr 210 ------- 0 2.0 3.1 148 193
- 0.555 2 3 cbr 210 ------- 0 2.0 3.1 148 193
r 0.557668 2 3 cbr 210 ------- 0 2.0 3.1 146 191
+ 0.55875 2 3 cbr 210 ------- 0 2.0 3.1 149 194
- 0.55875 2 3 cbr 210 ------- 0 2.0 3.1 149 194
r 0.561418 2 3 cbr 210 ------- 0 2.0 3.1 147 192
+ 0.5625 2 3 cbr 210 ------- 0 2.0 3.1 150 195
- 0.5625 2 3 cbr 210 ------- 0 2.0 3.1 150 195
r 0.565168 2 3 cbr 210 ------- 0 2.0 3.1 148 193
+ 0.56625 2 3 cbr 210 ------- 0 2.0 3.1 151 196
- 0.56625 2 3 cbr 210 ------- 0 2.0 3.1 151 196
r 0.568918 2 3 cbr 210 ------- 0 2.0 3.1 149 194
+ 0.57 2 3 cbr 210 ------- 0 2.0 3.1 152 197
- 0.57 2 3 cbr 210 ------- 0 2.0 3.1 152 197
r 0.572668 2 3 cbr 210 ------- 0 2.0 3.1 150 195
+ 0.57375 2 3 cbr 210 ------- 0 2.0 3.1 153 198
- 0.57375 2 3 cbr 210 ------- 0 2.0 3.1 153 198
r 0.576418 2 3 cbr 210 ------- 0 2.0 3.1 151 196
+ 0.5775 2 3 cbr 210 ------- 0 2.0 3.1 154 199
- 0.5775 2 3 cbr 210 ------- 0 2.0 3.1 154 199
r 0.580168 2 3 cbr 210 ------- 0 2.0 3.1 152 197
+ 0.58125 2 3 cbr 210 ------- 0 2.0 3.1 155 200
- 0.58125 2 3 cbr 210 ------- 0 2.0 3.1 155 200
r 0.583918 2 3 cbr 210 ------- 0 2.0 3.1 153 198
+ 0.585 2 3 cbr 210 ------- 0 2.0 3.1 156 201
- 0.585 2 3 cbr 210 ------- 0 2.0 3.1 156 201
r 0.587668 2 3 cbr 210 ------- 0 2.0 3.1 154 199
+ 0.58875 2 3 cbr 210 ------- 0 2.0 3.1 157 202
- 0.58875 2 3 cbr 210 ------- 0 2.0 3.1 157 202
r 0.591418 2 3 cbr 210 ------- 0 2.0 3.1 155 200
+ 0.5925 2 3 cbr 210 ------- 0 2.0 3.1 158 203
- 0.5925 2 3 cbr 210 ------- 0 2.0 3.1 158 203
r 0.595168 2 3 cbr 210 ------- 0 2.0 3.1 156 201
+ 0.59625 2 3 cbr 210 ------- 0 2.0 3.1 159 204
- 0.59625 2 3 cbr 210 ------- 0 2.0 3.1 159 204
r 0.598918 2 3 cbr 210 ------- 0 2.0 3.1 157 202
+ 0.6 2 3 cbr 210 ------- 0 2.0 3.1 160 205
- 0.6 2 3 cbr 210 ------- 0 2.0 3.1 160 205
r 0.602668 2 3 cbr 210 ------- 0 2.0 3.1 158 203
+ 0.60375 2 3 cbr 210 ------- 0 2.0 3.1 161 206
- 0.60375 2 3 cbr 210 ------- 0 2.0 3.1 161 206
r 0.606418 2 3 cbr 210 ------- 0 2.0 3.1 159 204
+ 0.6075 2 3 cbr 210 ------- 0 2.0 3.1 162 207
- 0.6075 2 3 cbr 210 ------- 0 2.0 3.1 162 207
r 0.610168 2 3 cbr 210 ------- 0 2.0 3.1 160 205
+ 0.61125 2 3 cbr 210 ------- 0 2.0 3.1 163 208
- 0.61125 2 3 cbr 210 ------- 0 2.0 3.1 163 208
r 0.613918 2 3 cbr 210 ------- 0 2.0 3.1 161 206
+ 0.615 2 3 cbr 210 ------- 0 2.0 3.1 164 209
- 0.615 2 3 cbr 210 ------- 0 2.0 3.1 164 209
r 0.617668 2 3 cbr 210 ------- 0 2.0 3.1 162 207
+ 0.61875 2 3 cbr 210 ------- 0 2.0 3.1 165 210
- 0.61875 2 3 cbr 210 ------- 0 2.0 3.1 165 210
r 0.621418 2 3 cbr 210 ------- 0 2.0 3.1 163 208
+ 0.6225 2 3 cbr 210 ------- 0 2.0 3.1 166 211
- 0.6225 2 3 cbr 210 ------- 0 2.0 3.1 166 211