+ 0 2 3 cbr 210 ------- 0 2.0 3.1 0 1
- 0 2 3 cbr 210 ------- 0 2.0 3.1 0 1
+ 0.00017 0 1 rtProtoLS 100 ------- 0 0.2 1.1 -1 2
- 0.00017 0 1 rtProtoLS 100 ------- 0 0.2 1.1 -1 2
+ 0.00017 0 4 rtProtoLS 100 ------- 0 0.2 4.1 -1 3
- 0.00017 0 4 rtProtoLS 100 ------- 0 0.2 4.1 -1 3
+ 0.00017 0 5 rtProtoLS 100 ------- 0 0.2 5.1 -1 4
- 0.00017 0 5 rtProtoLS 100 ------- 0 0.2 5.1 -1 4
+ 0.00375 2 3 cbr 210 ------- 0 2.0 3.1 1 5
- 0.00375 2 3 cbr 210 ------- 0 2.0 3.1 1 5
+ 0.007102 2 1 rtProtoLS 100 ------- 0 2.2 1.1 -1 6
- 0.007102 2 1 rtProtoLS 100 ------- 0 2.2 1.1 -1 6
+ 0.007102 2 3 rtProtoLS 100 ------- 0 2.2 3.3 -1 7
- 0.007102 2 3 rtProtoLS 100 ------- 0 2.2 3.3 -1 7
+ 0.0075 2 3 cbr 210 ------- 0 2.0 3.1 2 8
- 0.0075 2 3 cbr 210 ------- 0 2.0 3.1 2 8
r 0.010168 2 3 cbr 210 ------- 0 2.0 3.1 0 1
r 0.01025 0 1 rtProtoLS 100 ------- 0 0.2 1.1 -1 2
+ 0.01025 1 0 rtProtoLS 20 ------- 0 1.1 0.2 -1 9
- 0.01025 1 0 rtProtoLS 20 ------- 0 1.1 0.2 -1 9
+ 0.01025 1 2 rtProtoLS 100 ------- 0 1.1 2.2 -1 10
- 0.01025 1 2 rtProtoLS 100 ------- 0 1.1 2.2 -1 10
r 0.01025 0 4 rtProtoLS 100 ------- 0 0.2 4.1 -1 3
+ 0.01025 4 0 rtProtoLS 20 ------- 0 4.1 0.2 -1 11
- 0.01025 4 0 rtProtoLS 20 ------- 0 4.1 0.2 -1 11
+ 0.01025 4 3 rtProtoLS 100 ------- 0 4.1 3.3 -1 12
- 0.01025 4 3 rtProtoLS 100 ------- 0 4.1 3.3 -1 12
+ 0.01025 4 5 rtProtoLS 100 ------- 0 4.1 5.1 -1 13
- 0.01025 4 5 rtProtoLS 100 ------- 0 4.1 5.1 -1 13
r 0.01025 0 5 rtProtoLS 100 ------- 0 0.2 5.1 -1 4
+ 0.01025 5 0 rtProtoLS 20 ------- 0 5.1 0.2 -1 14
- 0.01025 5 0 rtProtoLS 20 ------- 0 5.1 0.2 -1 14
+ 0.01025 5 4 rtProtoLS 100 ------- 0 5.1 4.1 -1 15
- 0.01025 5 4 rtProtoLS 100 ------- 0 5.1 4.1 -1 15
+ 0.01125 2 3 cbr 210 ------- 0 2.0 3.1 3 16
- 0.01125 2 3 cbr 210 ------- 0 2.0 3.1 3 16
r 0.013918 2 3 cbr 210 ------- 0 2.0 3.1 1 5
+ 0.015 2 3 cbr 210 ------- 0 2.0 3.1 4 17
- 0.015 2 3 cbr 210 ------- 0 2.0 3.1 4 17
r 0.017182 2 1 rtProtoLS 100 ------- 0 2.2 1.1 -1 6
+ 0.017182 1 2 rtProtoLS 20 ------- 0 1.1 2.2 -1 18
- 0.017182 1 2 rtProtoLS 20 ------- 0 1.1 2.2 -1 18
+ 0.017182 1 0 rtProtoLS 100 ------- 0 1.1 0.2 -1 19
- 0.017182 1 0 rtProtoLS 100 ------- 0 1.1 0.2 -1 19
r 0.017182 2 3 rtProtoLS 100 ------- 0 2.2 3.3 -1 7
+ 0.017182 3 2 rtProtoLS 20 ------- 0 3.3 2.2 -1 20
- 0.017182 3 2 rtProtoLS 20 ------- 0 3.3 2.2 -1 20
+ 0.017182 3 4 rtProtoLS 100 ------- 0 3.3 4.1 -1 21
- 0.017182 3 4 rtProtoLS 100 ------- 0 3.3 4.1 -1 21
r 0.017668 2 3 cbr 210 ------- 0 2.0 3.1 2 8
+ 0.01875 2 3 cbr 210 ------- 0 2.0 3.1 5 22
- 0.01875 2 3 cbr 210 ------- 0 2.0 3.1 5 22
r 0.020266 1 0 rtProtoLS 20 ------- 0 1.1 0.2 -1 9
r 0.020266 4 0 rtProtoLS 20 ------- 0 4.1 0.2 -1 11
r 0.020266 5 0 rtProtoLS 20 ------- 0 5.1 0.2 -1 14
r 0.02033 1 2 rtProtoLS 100 ------- 0 1.1 2.2 -1 10
+ 0.02033 2 1 rtProtoLS 20 ------- 0 2.2 1.1 -1 23
- 0.02033 2 1 rtProtoLS 20 ------- 0 2.2 1.1 -1 23
+ 0.02033 2 3 rtProtoLS 100 ------- 0 2.2 3.3 -1 24
- 0.02033 2 3 rtProtoLS 100 ------- 0 2.2 3.3 -1 24
r 0.02033 4 3 rtProtoLS 100 ------- 0 4.1 3.3 -1 12
+ 0.02033 3 4 rtProtoLS 20 ------- 0 3.3 4.1 -1 25
- 0.02033 3 4 rtProtoLS 20 ------- 0 3.3 4.1 -1 25
+ 0.02033 3 2 rtProtoLS 100 ------- 0 3.3 2.2 -1 26
- 0.02033 3 2 rtProtoLS 100 ------- 0 3.3 2.2 -1 26
r 0.02033 4 5 rtProtoLS 100 ------- 0 4.1 5.1 -1 13
+ 0.02033 5 4 rtProtoLS 20 ------- 0 5.1 4.1 -1 27
- 0.02033 5 4 rtProtoLS 20 ------- 0 5.1 4.1 -1 27
r 0.02033 5 4 rtProtoLS 100 ------- 0 5.1 4.1 -1 15
+ 0.02033 4 5 rtProtoLS 20 ------- 0 4.1 5.1 -1 28
- 0.02033 4 5 rtProtoLS 20 ------- 0 4.1 5.1 -1 28
r 0.021418 2 3 cbr 210 ------- 0 2.0 3.1 3 16
+ 0.0225 2 3 cbr 210 ------- 0 2.0 3.1 6 29
- 0.0225 2 3 cbr 210 ------- 0 2.0 3.1 6 29
r 0.025168 2 3 cbr 210 ------- 0 2.0 3.1 4 17
+ 0.02625 2 3 cbr 210 ------- 0 2.0 3.1 7 30
- 0.02625 2 3 cbr 210 ------- 0 2.0 3.1 7 30
r 0.027198 1 2 rtProtoLS 20 ------- 0 1.1 2.2 -1 18
r 0.027198 3 2 rtProtoLS 20 ------- 0 3.3 2.2 -1 20
r 0.027262 1 0 rtProtoLS 100 ------- 0 1.1 0.2 -1 19
+ 0.027262 0 1 rtProtoLS 20 ------- 0 0.2 1.1 -1 31
- 0.027262 0 1 rtProtoLS 20 ------- 0 0.2 1.1 -1 31
+ 0.027262 0 4 rtProtoLS 100 ------- 0 0.2 4.1 -1 32
- 0.027262 0 4 rtProtoLS 100 ------- 0 0.2 4.1 -1 32
+ 0.027262 0 5 rtProtoLS 100 ------- 0 0.2 5.1 -1 33
- 0.027262 0 5 rtProtoLS 100 ------- 0 0.2 5.1 -1 33
r 0.027262 3 4 rtProtoLS 100 ------- 0 3.3 4.1 -1 21
+ 0.027262 4 3 rtProtoLS 20 ------- 0 4.1 3.3 -1 34
- 0.027262 4 3 rtProtoLS 20 ------- 0 4.1 3.3 -1 34
+ 0.027262 4 0 rtProtoLS 100 ------- 0 4.1 0.2 -1 35
- 0.027262 4 0 rtProtoLS 100 ------- 0 4.1 0.2 -1 35
+ 0.027262 4 5 rtProtoLS 100 ------- 0 4.1 5.1 -1 36
- 0.027262 4 5 rtProtoLS 100 ------- 0 4.1 5.1 -1 36
r 0.028918 2 3 cbr 210 ------- 0 2.0 3.1 5 22
+ 0.03 2 3 cbr 210 ------- 0 2.0 3.1 8 37
- 0.03 2 3 cbr 210 ------- 0 2.0 3.1 8 37
r 0.030346 2 1 rtProtoLS 20 ------- 0 2.2 1.1 -1 23
r 0.030346 3 4 rtProtoLS 20 ------- 0 3.3 4.1 -1 25
r 0.030346 5 4 rtProtoLS 20 ------- 0 5.1 4.1 -1 27
r 0.030346 4 5 rtProtoLS 20 ------- 0 4.1 5.1 -1 28
r 0.03041 2 3 rtProtoLS 100 ------- 0 2.2 3.3 -1 24
+ 0.03041 3 2 rtProtoLS 20 ------- 0 3.3 2.2 -1 38
- 0.03041 3 2 rtProtoLS 20 ------- 0 3.3 2.2 -1 38
r 0.03041 3 2 rtProtoLS 100 ------- 0 3.3 2.2 -1 26
+ 0.03041 2 3 rtProtoLS 20 ------- 0 2.2 3.3 -1 39
- 0.03041 2 3 rtProtoLS 20 ------- 0 2.2 3.3 -1 39
r 0.032668 2 3 cbr 210 ------- 0 2.0 3.1 6 29
+ 0.03375 2 3 cbr 210 ------- 0 2.0 3.1 9 40
- 0.03375 2 3 cbr 210 ------- 0 2.0 3.1 9 40
r 0.036418 2 3 cbr 210 ------- 0 2.0 3.1 7 30
r 0.037278 0 1 rtProtoLS 20 ------- 0 0.2 1.1 -1 31
r 0.037278 4 3 rtProtoLS 20 ------- 0 4.1 3.3 -1 34
r 0.037342 0 4 rtProtoLS 100 ------- 0 0.2 4.1 -1 32
+ 0.037342 4 0 rtProtoLS 20 ------- 0 4.1 0.2 -1 41
- 0.037342 4 0 rtProtoLS 20 ------- 0 4.1 0.2 -1 41
r 0.037342 0 5 rtProtoLS 100 ------- 0 0.2 5.1 -1 33
+ 0.037342 5 0 rtProtoLS 20 ------- 0 5.1 0.2 -1 42
- 0.037342 5 0 rtProtoLS 20 ------- 0 5.1 0.2 -1 42
+ 0.037342 5 4 rtProtoLS 100 ------- 0 5.1 4.1 -1 43
- 0.037342 5 4 rtProtoLS 100 ------- 0 5.1 4.1 -1 43
r 0.037342 4 0 rtProtoLS 100 ------- 0 4.1 0.2 -1 35
+ 0.037342 0 4 rtProtoLS 20 ------- 0 0.2 4.1 -1 44
- 0.037342 0 4 rtProtoLS 20 ------- 0 0.2 4.1 -1 44
r 0.037342 4 5 rtProtoLS 100 ------- 0 4.1 5.1 -1 36
+ 0.037342 5 4 rtProtoLS 20 ------- 0 5.1 4.1 -1 45
- 0.037422 5 4 rtProtoLS 20 ------- 0 5.1 4.1 -1 45
+ 0.0375 2 3 cbr 210 ------- 0 2.0 3.1 10 46
- 0.0375 2 3 cbr 210 ------- 0 2.0 3.1 10 46
r 0.040168 2 3 cbr 210 ------- 0 2.0 3.1 8 37
r 0.040426 3 2 rtProtoLS 20 ------- 0 3.3 2.2 -1 38
r 0.040426 2 3 rtProtoLS 20 ------- 0 2.2 3.3 -1 39
+ 0.04125 2 3 cbr 210 ------- 0 2.0 3.1 11 47
- 0.04125 2 3 cbr 210 ------- 0 2.0 3.1 11 47
r 0.043918 2 3 cbr 210 ------- 0 2.0 3.1 9 40
+ 0.044061 3 2 rtProtoLS 100 ------- 0 3.3 2.2 -1 48
- 0.044061 3 2 rtProtoLS 100 ------- 0 3.3 2.2 -1 48
+ 0.044061 3 4 rtProtoLS 100 ------- 0 3.3 4.1 -1 49
- 0.044061 3 4 rtProtoLS 100 ------- 0 3.3 4.1 -1 49
+ 0.045 2 3 cbr 210 ------- 0 2.0 3.1 12 50
- 0.045 2 3 cbr 210 ------- 0 2.0 3.1 12 50
r 0.047358 4 0 rtProtoLS 20 ------- 0 4.1 0.2 -1 41
r 0.047358 5 0 rtProtoLS 20 ------- 0 5.1 0.2 -1 42
r 0.047358 0 4 rtProtoLS 20 ------- 0 0.2 4.1 -1 44
r 0.047422 5 4 rtProtoLS 100 ------- 0 5.1 4.1 -1 43
+ 0.047422 4 5 rtProtoLS 20 ------- 0 4.1 5.1 -1 51
- 0.047422 4 5 rtProtoLS 20 ------- 0 4.1 5.1 -1 51
r 0.047438 5 4 rtProtoLS 20 ------- 0 5.1 4.1 -1 45
r 0.047668 2 3 cbr 210 ------- 0 2.0 3.1 10 46
+ 0.04875 2 3 cbr 210 ------- 0 2.0 3.1 13 52
- 0.04875 2 3 cbr 210 ------- 0 2.0 3.1 13 52
r 0.051418 2 3 cbr 210 ------- 0 2.0 3.1 11 47
+ 0.0525 2 3 cbr 210 ------- 0 2.0 3.1 14 53
- 0.0525 2 3 cbr 210 ------- 0 2.0 3.1 14 53
r 0.054141 3 2 rtProtoLS 100 ------- 0 3.3 2.2 -1 48
+ 0.054141 2 3 rtProtoLS 20 ------- 0 2.2 3.3 -1 54
- 0.054141 2 3 rtProtoLS 20 ------- 0 2.2 3.3 -1 54
+ 0.054141 2 1 rtProtoLS 100 ------- 0 2.2 1.1 -1 55
- 0.054141 2 1 rtProtoLS 100 ------- 0 2.2 1.1 -1 55
r 0.054141 3 4 rtProtoLS 100 ------- 0 3.3 4.1 -1 49
+ 0.054141 4 3 rtProtoLS 20 ------- 0 4.1 3.3 -1 56
- 0.054141 4 3 rtProtoLS 20 ------- 0 4.1 3.3 -1 56
+ 0.054141 4 0 rtProtoLS 100 ------- 0 4.1 0.2 -1 57
- 0.054141 4 0 rtProtoLS 100 ------- 0 4.1 0.2 -1 57
+ 0.054141 4 5 rtProtoLS 100 ------- 0 4.1 5.1 -1 58
- 0.054141 4 5 rtProtoLS 100 ------- 0 4.1 5.1 -1 58
r 0.055168 2 3 cbr 210 ------- 0 2.0 3.1 12 50
+ 0.05625 2 3 cbr 210 ------- 0 2.0 3.1 15 59
- 0.05625 2 3 cbr 210 ------- 0 2.0 3.1 15 59
r 0.057438 4 5 rtProtoLS 20 ------- 0 4.1 5.1 -1 51
r 0.058918 2 3 cbr 210 ------- 0 2.0 3.1 13 52
+ 0.06 2 3 cbr 210 ------- 0 2.0 3.1 16 60
- 0.06 2 3 cbr 210 ------- 0 2.0 3.1 16 60
r 0.062668 2 3 cbr 210 ------- 0 2.0 3.1 14 53
+ 0.06375 2 3 cbr 210 ------- 0 2.0 3.1 17 61
- 0.06375 2 3 cbr 210 ------- 0 2.0 3.1 17 61
r 0.064157 2 3 rtProtoLS 20 ------- 0 2.2 3.3 -1 54
r 0.064157 4 3 rtProtoLS 20 ------- 0 4.1 3.3 -1 56
r 0.064221 2 1 rtProtoLS 100 ------- 0 2.2 1.1 -1 55
+ 0.064221 1 2 rtProtoLS 20 ------- 0 1.1 2.2 -1 62
- 0.064221 1 2 rtProtoLS 20 ------- 0 1.1 2.2 -1 62
+ 0.064221 1 0 rtProtoLS 100 ------- 0 1.1 0.2 -1 63
- 0.064221 1 0 rtProtoLS 100 ------- 0 1.1 0.2 -1 63
r 0.064221 4 0 rtProtoLS 100 ------- 0 4.1 0.2 -1 57
+ 0.064221 0 4 rtProtoLS 20 ------- 0 0.2 4.1 -1 64
- 0.064221 0 4 rtProtoLS 20 ------- 0 0.2 4.1 -1 64
+ 0.064221 0 1 rtProtoLS 100 ------- 0 0.2 1.1 -1 65
- 0.064221 0 1 rtProtoLS 100 ------- 0 0.2 1.1 -1 65
+ 0.064221 0 5 rtProtoLS 100 ------- 0 0.2 5.1 -1 66
- 0.064221 0 5 rtProtoLS 100 ------- 0 0.2 5.1 -1 66
r 0.064221 4 5 rtProtoLS 100 ------- 0 4.1 5.1 -1 58
+ 0.064221 5 4 rtProtoLS 20 ------- 0 5.1 4.1 -1 67
- 0.064221 5 4 rtProtoLS 20 ------- 0 5.1 4.1 -1 67
+ 0.064221 5 0 rtProtoLS 100 ------- 0 5.1 0.2 -1 68
- 0.064221 5 0 rtProtoLS 100 ------- 0 5.1 0.2 -1 68
r 0.066418 2 3 cbr 210 ------- 0 2.0 3.1 15 59
+ 0.0675 2 3 cbr 210 ------- 0 2.0 3.1 18 69
- 0.0675 2 3 cbr 210 ------- 0 2.0 3.1 18 69
r 0.070168 2 3 cbr 210 ------- 0 2.0 3.1 16 60
+ 0.07125 2 3 cbr 210 ------- 0 2.0 3.1 19 70
- 0.07125 2 3 cbr 210 ------- 0 2.0 3.1 19 70
r 0.073918 2 3 cbr 210 ------- 0 2.0 3.1 17 61
r 0.074237 1 2 rtProtoLS 20 ------- 0 1.1 2.2 -1 62
r 0.074237 0 4 rtProtoLS 20 ------- 0 0.2 4.1 -1 64
r 0.074237 5 4 rtProtoLS 20 ------- 0 5.1 4.1 -1 67
r 0.074301 1 0 rtProtoLS 100 ------- 0 1.1 0.2 -1 63
+ 0.074301 0 1 rtProtoLS 20 ------- 0 0.2 1.1 -1 71
- 0.074301 0 1 rtProtoLS 20 ------- 0 0.2 1.1 -1 71
r 0.074301 0 1 rtProtoLS 100 ------- 0 0.2 1.1 -1 65
+ 0.074301 1 0 rtProtoLS 20 ------- 0 1.1 0.2 -1 72
- 0.074301 1 0 rtProtoLS 20 ------- 0 1.1 0.2 -1 72
r 0.074301 0 5 rtProtoLS 100 ------- 0 0.2 5.1 -1 66
+ 0.074301 5 0 rtProtoLS 20 ------- 0 5.1 0.2 -1 73
- 0.074301 5 0 rtProtoLS 20 ------- 0 5.1 0.2 -1 73
r 0.074301 5 0 rtProtoLS 100 ------- 0 5.1 0.2 -1 68
+ 0.074301 0 5 rtProtoLS 20 ------- 0 0.2 5.1 -1 74
- 0.074301 0 5 rtProtoLS 20 ------- 0 0.2 5.1 -1 74
+ 0.075 2 3 cbr 210 ------- 0 2.0 3.1 20 75
- 0.075 2 3 cbr 210 ------- 0 2.0 3.1 20 75
r 0.077668 2 3 cbr 210 ------- 0 2.0 3.1 18 69
+ 0.07875 2 3 cbr 210 ------- 0 2.0 3.1 21 76
- 0.07875 2 3 cbr 210 ------- 0 2.0 3.1 21 76
r 0.081418 2 3 cbr 210 ------- 0 2.0 3.1 19 70
+ 0.0825 2 3 cbr 210 ------- 0 2.0 3.1 22 77
- 0.0825 2 3 cbr 210 ------- 0 2.0 3.1 22 77
r 0.084317 0 1 rtProtoLS 20 ------- 0 0.2 1.1 -1 71
r 0.084317 1 0 rtProtoLS 20 ------- 0 1.1 0.2 -1 72
r 0.084317 5 0 rtProtoLS 20 ------- 0 5.1 0.2 -1 73
r 0.084317 0 5 rtProtoLS 20 ------- 0 0.2 5.1 -1 74
r 0.085168 2 3 cbr 210 ------- 0 2.0 3.1 20 75
+ 0.08625 2 3 cbr 210 ------- 0 2.0 3.1 23 78
- 0.08625 2 3 cbr 210 ------- 0 2.0 3.1 23 78
r 0.088918 2 3 cbr 210 ------- 0 2.0 3.1 21 76
+ 0.09 2 3 cbr 210 ------- 0 2.0 3.1 24 79
- 0.09 2 3 cbr 210 ------- 0 2.0 3.1 24 79
r 0.092668 2 3 cbr 210 ------- 0 2.0 3.1 22 77
+ 0.09375 2 3 cbr 210 ------- 0 2.0 3.1 25 80
- 0.09375 2 3 cbr 210 ------- 0 2.0 3.1 25 80
r 0.096418 2 3 cbr 210 ------- 0 2.0 3.1 23 78
+ 0.0975 2 3 cbr 210 ------- 0 2.0 3.1 26 81
- 0.0975 2 3 cbr 210 ------- 0 2.0 3.1 26 81
r 0.100168 2 3 cbr 210 ------- 0 2.0 3.1 24 79
+ 0.10125 2 3 cbr 210 ------- 0 2.0 3.1 27 82
- 0.10125 2 3 cbr 210 ------- 0 2.0 3.1 27 82
r 0.103918 2 3 cbr 210 ------- 0 2.0 3.1 25 80
+ 0.105 2 3 cbr 210 ------- 0 2.0 3.1 28 83
- 0.105 2 3 cbr 210 ------- 0 2.0 3.1 28 83
r 0.107668 2 3 cbr 210 ------- 0 2.0 3.1 26 81
+ 0.10875 2 3 cbr 210 ------- 0 2.0 3.1 29 84
- 0.10875 2 3 cbr 210 ------- 0 2.0 3.1 29 84
r 0.111418 2 3 cbr 210 ------- 0 2.0 3.1 27 82
+ 0.1125 2 3 cbr 210 ------- 0 2.0 3.1 30 85
- 0.1125 2 3 cbr 210 ------- 0 2.0 3.1 30 85
r 0.115168 2 3 cbr 210 ------- 0 2.0 3.1 28 83
+ 0.11625 2 3 cbr 210 ------- 0 2.0 3.1 31 86
- 0.11625 2 3 cbr 210 ------- 0 2.0 3.1 31 86
r 0.118918 2 3 cbr 210 ------- 0 2.0 3.1 29 84
+ 0.12 2 3 cbr 210 ------- 0 2.0 3.1 32 87
- 0.12 2 3 cbr 210 ------- 0 2.0 3.1 32 87
r 0.122668 2 3 cbr 210 ------- 0 2.0 3.1 30 85
+ 0.12375 2 3 cbr 210 ------- 0 2.0 3.1 33 88
- 0.12375 2 3 cbr 210 ------- 0 2.0 3.1 33 88
r 0.126418 2 3 cbr 210 ------- 0 2.0 3.1 31 86
+ 0.1275 2 3 cbr 210 ------- 0 2.0 3.1 34 89
- 0.1275 2 3 cbr 210 ------- 0 2.0 3.1 34 89
r 0.130168 2 3 cbr 210 ------- 0 2.0 3.1 32 87
+ 0.13125 2 3 cbr 210 ------- 0 2.0 3.1 35 90
- 0.13125 2 3 cbr 210 ------- 0 2.0 3.1 35 90
r 0.133918 2 3 cbr 210 ------- 0 2.0 3.1 33 88
+ 0.135 2 3 cbr 210 ------- 0 2.0 3.1 36 91
- 0.135 2 3 cbr 210 ------- 0 2.0 3.1 36 91
r 0.137668 2 3 cbr 210 ------- 0 2.0 3.1 34 89
+ 0.13875 2 3 cbr 210 ------- 0 2.0 3.1 37 92
- 0.13875 2 3 cbr 210 ------- 0 2.0 3.1 37 92
r 0.141418 2 3 cbr 210 ------- 0 2.0 3.1 35 90
+ 0.1425 2 3 cbr 210 ------- 0 2.0 3.1 38 93
- 0.1425 2 3 cbr 210 ------- 0 2.0 3.1 38 93
r 0.145168 2 3 cbr 210 ------- 0 2.0 3.1 36 91
+ 0.14625 2 3 cbr 210 ------- 0 2.0 3.1 39 94
- 0.14625 2 3 cbr 210 ------- 0 2.0 3.1 39 94
r 0.148918 2 3 cbr 210 ------- 0 2.0 3.1 37 92
+ 0.15 2 3 cbr 210 ------- 0 2.0 3.1 40 95
- 0.15 2 3 cbr 210 ------- 0 2.0 3.1 40 95
r 0.152668 2 3 cbr 210 ------- 0 2.0 3.1 38 93
+ 0.15375 2 3 cbr 210 ------- 0 2.0 3.1 41 96
- 0.15375 2 3 cbr 210 ------- 0 2.0 3.1 41 96
r 0.156418 2 3 cbr 210 ------- 0 2.0 3.1 39 94
+ 0.1575 2 3 cbr 210 ------- 0 2.0 3.1 42 97
- 0.1575 2 3 cbr 210 ------- 0 2.0 3.1 42 97
r 0.160168 2 3 cbr 210 ------- 0 2.0 3.1 40 95
+ 0.16125 2 3 cbr 210 ------- 0 2.0 3.1 43 98
- 0.16125 2 3 cbr 210 ------- 0 2.0 3.1 43 98
r 0.163918 2 3 cbr 210 ------- 0 2.0 3.1 41 96
+ 0.165 2 3 cbr 210 ------- 0 2.0 3.1 44 99
- 0.165 2 3 cbr 210 ------- 0 2.0 3.1 44 99
r 0.167668 2 3 cbr 210 ------- 0 2.0 3.1 42 97
+ 0.16875 2 3 cbr 210 ------- 0 2.0 3.1 45 100
- 0.16875 2 3 cbr 210 ------- 0 2.0 3.1 45 100
r 0.171418 2 3 cbr 210 ------- 0 2.0 3.1 43 98
+ 0.1725 2 3 cbr 210 ------- 0 2.0 3.1 46 101
- 0.1725 2 3 cbr 210 ------- 0 2.0 3.1 46 101
r 0.175168 2 3 cbr 210 ------- 0 2.0 3.1 44 99
+ 0.17625 2 3 cbr 210 ------- 0 2.0 3.1 47 102
- 0.17625 2 3 cbr 210 ------- 0 2.0 3.1 47 102
r 0.178918 2 3 cbr 210 ------- 0 2.0 3.1 45 100
+ 0.18 2 3 cbr 210 ------- 0 2.0 3.1 48 103
- 0.18 2 3 cbr 210 ------- 0 2.0 3.1 48 103
r 0.182668 2 3 cbr 210 ------- 0 2.0 3.1 46 101
+ 0.18375 2 3 cbr 210 ------- 0 2.0 3.1 49 104
- 0.18375 2 3 cbr 210 ------- 0 2.0 3.1 49 104
r 0.186418 2 3 cbr 210 ------- 0 2.0 3.1 47 102
+ 0.1875 2 3 cbr 210 ------- 0 2.0 3.1 50 105
- 0.1875 2 3 cbr 210 ------- 0 2.0 3.1 50 105
r 0.190168 2 3 cbr 210 ------- 0 2.0 3.1 48 103
+ 0.19125 2 3 cbr 210 ------- 0 2.0 3.1 51 106
- 0.19125 2 3 cbr 210 ------- 0 2.0 3.1 51 106
r 0.193918 2 3 cbr 210 ------- 0 2.0 3.1 49 104
+ 0.195 2 3 cbr 210 ------- 0 2.0 3.1 52 107
- 0.195 2 3 cbr 210 ------- 0 2.0 3.1 52 107
r 0.197668 2 3 cbr 210 ------- 0 2.0 3.1 50 105
+ 0.19875 2 3 cbr 210 ------- 0 2.0 3.1 53 108
- 0.19875 2 3 cbr 210 ------- 0 2.0 3.1 53 108
r 0.201418 2 3 cbr 210 ------- 0 2.0 3.1 51 106
+ 0.2025 2 3 cbr 210 ------- 0 2.0 3.1 54 109
- 0.2025 2 3 cbr 210 ------- 0 2.0 3.1 54 109
r 0.205168 2 3 cbr 210 ------- 0 2.0 3.1 52 107
+ 0.20625 2 3 cbr 210 ------- 0 2.0 3.1 55 110
- 0.20625 2 3 cbr 210 ------- 0 2.0 3.1 55 110
r 0.208918 2 3 cbr 210 ------- 0 2.0 3.1 53 108
+ 0.21 2 3 cbr 210 ------- 0 2.0 3.1 56 111
- 0.21 2 3 cbr 210 ------- 0 2.0 3.1 56 111
r 0.212668 2 3 cbr 210 ------- 0 2.0 3.1 54 109
+ 0.21375 2 3 cbr 210 ------- 0 2.0 3.1 57 112
- 0.21375 2 3 cbr 210 ------- 0 2.0 3.1 57 112
r 0.216418 2 3 cbr 210 ------- 0 2.0 3.1 55 110
+ 0.2175 2 3 cbr 210 ------- 0 2.0 3.1 58 113
- 0.2175 2 3 cbr 210 ------- 0 2.0 3.1 58 113
r 0.220168 2 3 cbr 210 ------- 0 2.0 3.1 56 111
+ 0.220587 4 0 rtProtoLS 100 ------- 0 4.1 0.2 -1 114
- 0.220587 4 0 rtProtoLS 100 ------- 0 4.1 0.2 -1 114
+ 0.220587 4 3 rtProtoLS 100 ------- 0 4.1 3.3 -1 115
- 0.220587 4 3 rtProtoLS 100 ------- 0 4.1 3.3 -1 115
+ 0.220587 4 5 rtProtoLS 100 ------- 0 4.1 5.1 -1 116
- 0.220587 4 5 rtProtoLS 100 ------- 0 4.1 5.1 -1 116
+ 0.22125 2 3 cbr 210 ------- 0 2.0 3.1 59 117
- 0.22125 2 3 cbr 210 ------- 0 2.0 3.1 59 117
r 0.223918 2 3 cbr 210 ------- 0 2.0 3.1 57 112
+ 0.225 2 3 cbr 210 ------- 0 2.0 3.1 60 118
- 0.225 2 3 cbr 210 ------- 0 2.0 3.1 60 118
r 0.227668 2 3 cbr 210 ------- 0 2.0 3.1 58 113
+ 0.22875 2 3 cbr 210 ------- 0 2.0 3.1 61 119
- 0.22875 2 3 cbr 210 ------- 0 2.0 3.1 61 119
r 0.230667 4 0 rtProtoLS 100 ------- 0 4.1 0.2 -1 114
+ 0.230667 0 4 rtProtoLS 20 ------- 0 0.2 4.1 -1 120
- 0.230667 0 4 rtProtoLS 20 ------- 0 0.2 4.1 -1 120
+ 0.230667 0 1 rtProtoLS 100 ------- 0 0.2 1.1 -1 121
- 0.230667 0 1 rtProtoLS 100 ------- 0 0.2 1.1 -1 121
+ 0.230667 0 5 rtProtoLS 100 ------- 0 0.2 5.1 -1 122
- 0.230667 0 5 rtProtoLS 100 ------- 0 0.2 5.1 -1 122
r 0.230667 4 3 rtProtoLS 100 ------- 0 4.1 3.3 -1 115
+ 0.230667 3 4 rtProtoLS 20 ------- 0 3.3 4.1 -1 123
- 0.230667 3 4 rtProtoLS 20 ------- 0 3.3 4.1 -1 123
+ 0.230667 3 2 rtProtoLS 100 ------- 0 3.3 2.2 -1 124
- 0.230667 3 2 rtProtoLS 100 ------- 0 3.3 2.2 -1 124
r 0.230667 4 5 rtProtoLS 100 ------- 0 4.1 5.1 -1 116
+ 0.230667 5 4 rtProtoLS 20 ------- 0 5.1 4.1 -1 125
- 0.230667 5 4 rtProtoLS 20 ------- 0 5.1 4.1 -1 125
+ 0.230667 5 0 rtProtoLS 100 ------- 0 5.1 0.2 -1 126
- 0.230667 5 0 rtProtoLS 100 ------- 0 5.1 0.2 -1 126
r 0.231418 2 3 cbr 210 ------- 0 2.0 3.1 59 117
+ 0.2325 2 3 cbr 210 ------- 0 2.0 3.1 62 127
- 0.2325 2 3 cbr 210 ------- 0 2.0 3.1 62 127
r 0.235168 2 3 cbr 210 ------- 0 2.0 3.1 60 118
+ 0.23625 2 3 cbr 210 ------- 0 2.0 3.1 63 128
- 0.23625 2 3 cbr 210 ------- 0 2.0 3.1 63 128
r 0.238918 2 3 cbr 210 ------- 0 2.0 3.1 61 119
+ 0.24 2 3 cbr 210 ------- 0 2.0 3.1 64 129
- 0.24 2 3 cbr 210 ------- 0 2.0 3.1 64 129
r 0.240683 0 4 rtProtoLS 20 ------- 0 0.2 4.1 -1 120
r 0.240683 3 4 rtProtoLS 20 ------- 0 3.3 4.1 -1 123
r 0.240683 5 4 rtProtoLS 20 ------- 0 5.1 4.1 -1 125
r 0.240747 0 1 rtProtoLS 100 ------- 0 0.2 1.1 -1 121
+ 0.240747 1 0 rtProtoLS 20 ------- 0 1.1 0.2 -1 130
- 0.240747 1 0 rtProtoLS 20 ------- 0 1.1 0.2 -1 130
+ 0.240747 1 2 rtProtoLS 100 ------- 0 1.1 2.2 -1 131
- 0.240747 1 2 rtProtoLS 100 ------- 0 1.1 2.2 -1 131
r 0.240747 0 5 rtProtoLS 100 ------- 0 0.2 5.1 -1 122
+ 0.240747 5 0 rtProtoLS 20 ------- 0 5.1 0.2 -1 132
- 0.240747 5 0 rtProtoLS 20 ------- 0 5.1 0.2 -1 132
r 0.240747 3 2 rtProtoLS 100 ------- 0 3.3 2.2 -1 124
+ 0.240747 2 3 rtProtoLS 20 ------- 0 2.2 3.3 -1 133
- 0.240747 2 3 rtProtoLS 20 ------- 0 2.2 3.3 -1 133
+ 0.240747 2 1 rtProtoLS 100 ------- 0 2.2 1.1 -1 134
- 0.240747 2 1 rtProtoLS 100 ------- 0 2.2 1.1 -1 134
r 0.240747 5 0 rtProtoLS 100 ------- 0 5.1 0.2 -1 126
+ 0.240747 0 5 rtProtoLS 20 ------- 0 0.2 5.1 -1 135
- 0.240747 0 5 rtProtoLS 20 ------- 0 0.2 5.1 -1 135
r 0.242668 2 3 cbr 210 ------- 0 2.0 3.1 62 127
+ 0.24375 2 3 cbr 210 ------- 0 2.0 3.1 65 136
- 0.24375 2 3 cbr 210 ------- 0 2.0 3.1 65 136
r 0.246418 2 3 cbr 210 ------- 0 2.0 3.1 63 128
+ 0.2475 2 3 cbr 210 ------- 0 2.0 3.1 66 137
- 0.2475 2 3 cbr 210 ------- 0 2.0 3.1 66 137
r 0.250168 2 3 cbr 210 ------- 0 2.0 3.1 64 129
r 0.250763 1 0 rtProtoLS 20 ------- 0 1.1 0.2 -1 130
r 0.250763 5 0 rtProtoLS 20 ------- 0 5.1 0.2 -1 132
r 0.250763 2 3 rtProtoLS 20 ------- 0 2.2 3.3 -1 133
r 0.250763 0 5 rtProtoLS 20 ------- 0 0.2 5.1 -1 135
r 0.250827 1 2 rtProtoLS 100 ------- 0 1.1 2.2 -1 131
+ 0.250827 2 1 rtProtoLS 20 ------- 0 2.2 1.1 -1 138
- 0.250827 2 1 rtProtoLS 20 ------- 0 2.2 1.1 -1 138
r 0.250827 2 1 rtProtoLS 100 ------- 0 2.2 1.1 -1 134
+ 0.250827 1 2 rtProtoLS 20 ------- 0 1.1 2.2 -1 139
- 0.250827 1 2 rtProtoLS 20 ------- 0 1.1 2.2 -1 139
+ 0.25125 2 3 cbr 210 ------- 0 2.0 3.1 67 140
- 0.25125 2 3 cbr 210 ------- 0 2.0 3.1 67 140
r 0.253918 2 3 cbr 210 ------- 0 2.0 3.1 65 136
+ 0.255 2 3 cbr 210 ------- 0 2.0 3.1 68 141
- 0.255 2 3 cbr 210 ------- 0 2.0 3.1 68 141
r 0.257668 2 3 cbr 210 ------- 0 2.0 3.1 66 137
+ 0.25875 2 3 cbr 210 ------- 0 2.0 3.1 69 142
- 0.25875 2 3 cbr 210 ------- 0 2.0 3.1 69 142
r 0.260843 2 1 rtProtoLS 20 ------- 0 2.2 1.1 -1 138
r 0.260843 1 2 rtProtoLS 20 ------- 0 1.1 2.2 -1 139
r 0.261418 2 3 cbr 210 ------- 0 2.0 3.1 67 140
+ 0.2625 2 3 cbr 210 ------- 0 2.0 3.1 70 143
- 0.2625 2 3 cbr 210 ------- 0 2.0 3.1 70 143
r 0.265168 2 3 cbr 210 ------- 0 2.0 3.1 68 141
+ 0.26625 2 3 cbr 210 ------- 0 2.0 3.1 71 144
- 0.26625 2 3 cbr 210 ------- 0 2.0 3.1 71 144
r 0.268918 2 3 cbr 210 ------- 0 2.0 3.1 69 142
+ 0.27 2 3 cbr 210 ------- 0 2.0 3.1 72 145
- 0.27 2 3 cbr 210 ------- 0 2.0 3.1 72 145
r 0.272668 2 3 cbr 210 ------- 0 2.0 3.1 70 143
+ 0.27375 2 3 cbr 210 ------- 0 2.0 3.1 73 146
- 0.27375 2 3 cbr 210 ------- 0 2.0 3.1 73 146
r 0.276418 2 3 cbr 210 ------- 0 2.0 3.1 71 144
+ 0.2775 2 3 cbr 210 ------- 0 2.0 3.1 74 147
- 0.2775 2 3 cbr 210 ------- 0 2.0 3.1 74 147
+ 0.27794 1 0 rtProtoLS 100 ------- 0 1.1 0.2 -1 148
- 0.27794 1 0 rtProtoLS 100 ------- 0 1.1 0.2 -1 148
+ 0.27794 1 2 rtProtoLS 100 ------- 0 1.1 2.2 -1 149
- 0.27794 1 2 rtProtoLS 100 ------- 0 1.1 2.2 -1 149
r 0.280168 2 3 cbr 210 ------- 0 2.0 3.1 72 145
+ 0.28125 2 3 cbr 210 ------- 0 2.0 3.1 75 150
- 0.28125 2 3 cbr 210 ------- 0 2.0 3.1 75 150
r 0.283918 2 3 cbr 210 ------- 0 2.0 3.1 73 146
+ 0.285 2 3 cbr 210 ------- 0 2.0 3.1 76 151
- 0.285 2 3 cbr 210 ------- 0 2.0 3.1 76 151
r 0.287668 2 3 cbr 210 ------- 0 2.0 3.1 74 147
r 0.28802 1 0 rtProtoLS 100 ------- 0 1.1 0.2 -1 148
+ 0.28802 0 1 rtProtoLS 20 ------- 0 0.2 1.1 -1 152
- 0.28802 0 1 rtProtoLS 20 ------- 0 0.2 1.1 -1 152
+ 0.28802 0 4 rtProtoLS 100 ------- 0 0.2 4.1 -1 153
- 0.28802 0 4 rtProtoLS 100 ------- 0 0.2 4.1 -1 153
+ 0.28802 0 5 rtProtoLS 100 ------- 0 0.2 5.1 -1 154
- 0.28802 0 5 rtProtoLS 100 ------- 0 0.2 5.1 -1 154
r 0.28802 1 2 rtProtoLS 100 ------- 0 1.1 2.2 -1 149
+ 0.28802 2 1 rtProtoLS 20 ------- 0 2.2 1.1 -1 155
- 0.28802 2 1 rtProtoLS 20 ------- 0 2.2 1.1 -1 155
+ 0.28802 2 3 rtProtoLS 100 ------- 0 2.2 3.3 -1 156
- 0.28802 2 3 rtProtoLS 100 ------- 0 2.2 3.3 -1 156
+ 0.28875 2 3 cbr 210 ------- 0 2.0 3.1 77 157
- 0.28875 2 3 cbr 210 ------- 0 2.0 3.1 77 157
r 0.291418 2 3 cbr 210 ------- 0 2.0 3.1 75 150
+ 0.2925 2 3 cbr 210 ------- 0 2.0 3.1 78 158
- 0.2925 2 3 cbr 210 ------- 0 2.0 3.1 78 158
r 0.295168 2 3 cbr 210 ------- 0 2.0 3.1 76 151
+ 0.29625 2 3 cbr 210 ------- 0 2.0 3.1 79 159
- 0.29625 2 3 cbr 210 ------- 0 2.0 3.1 79 159
r 0.298036 0 1 rtProtoLS 20 ------- 0 0.2 1.1 -1 152
r 0.298036 2 1 rtProtoLS 20 ------- 0 2.2 1.1 -1 155
r 0.2981 0 4 rtProtoLS 100 ------- 0 0.2 4.1 -1 153
+ 0.2981 4 0 rtProtoLS 20 ------- 0 4.1 0.2 -1 160
- 0.2981 4 0 rtProtoLS 20 ------- 0 4.1 0.2 -1 160
+ 0.2981 4 3 rtProtoLS 100 ------- 0 4.1 3.3 -1 161
- 0.2981 4 3 rtProtoLS 100 ------- 0 4.1 3.3 -1 161
+ 0.2981 4 5 rtProtoLS 100 ------- 0 4.1 5.1 -1 162
- 0.2981 4 5 rtProtoLS 100 ------- 0 4.1 5.1 -1 162
r 0.2981 0 5 rtProtoLS 100 ------- 0 0.2 5.1 -1 154
+ 0.2981 5 0 rtProtoLS 20 ------- 0 5.1 0.2 -1 163
- 0.2981 5 0 rtProtoLS 20 ------- 0 5.1 0.2 -1 163
+ 0.2981 5 4 rtProtoLS 100 ------- 0 5.1 4.1 -1 164
- 0.2981 5 4 rtProtoLS 100 ------- 0 5.1 4.1 -1 164
r 0.2981 2 3 rtProtoLS 100 ------- 0 2.2 3.3 -1 156
+ 0.2981 3 2 rtProtoLS 20 ------- 0 3.3 2.2 -1 165
- 0.2981 3 2 rtProtoLS 20 ------- 0 3.3 2.2 -1 165
+ 0.2981 3 4 rtProtoLS 100 ------- 0 3.3 4.1 -1 166
- 0.2981 3 4 rtProtoLS 100 ------- 0 3.3 4.1 -1 166
r 0.298918 2 3 cbr 210 ------- 0 2.0 3.1 77 157
+ 0.3 2 3 cbr 210 ------- 0 2.0 3.1 80 167
- 0.3 2 3 cbr 210 ------- 0 2.0 3.1 80 167
r 0.302668 2 3 cbr 210 ------- 0 2.0 3.1 78 158
+ 0.30375 2 3 cbr 210 ------- 0 2.0 3.1 81 168
- 0.30375 2 3 cbr 210 ------- 0 2.0 3.1 81 168
r 0.306418 2 3 cbr 210 ------- 0 2.0 3.1 79 159
+ 0.3075 2 3 cbr 210 ------- 0 2.0 3.1 82 169
- 0.3075 2 3 cbr 210 ------- 0 2.0 3.1 82 169
r 0.308116 4 0 rtProtoLS 20 ------- 0 4.1 0.2 -1 160
r 0.308116 5 0 rtProtoLS 20 ------- 0 5.1 0.2 -1 163
r 0.308116 3 2 rtProtoLS 20 ------- 0 3.3 2.2 -1 165
r 0.30818 4 3 rtProtoLS 100 ------- 0 4.1 3.3 -1 161
+ 0.30818 3 4 rtProtoLS 20 ------- 0 3.3 4.1 -1 170
- 0.30818 3 4 rtProtoLS 20 ------- 0 3.3 4.1 -1 170
r 0.30818 4 5 rtProtoLS 100 ------- 0 4.1 5.1 -1 162
+ 0.30818 5 4 rtProtoLS 20 ------- 0 5.1 4.1 -1 171
- 0.30818 5 4 rtProtoLS 20 ------- 0 5.1 4.1 -1 171
r 0.30818 5 4 rtProtoLS 100 ------- 0 5.1 4.1 -1 164
+ 0.30818 4 5 rtProtoLS 20 ------- 0 4.1 5.1 -1 172
- 0.30818 4 5 rtProtoLS 20 ------- 0 4.1 5.1 -1 172
r 0.30818 3 4 rtProtoLS 100 ------- 0 3.3 4.1 -1 166
+ 0.30818 4 3 rtProtoLS 20 ------- 0 4.1 3.3 -1 173
- 0.30818 4 3 rtProtoLS 20 ------- 0 4.1 3.3 -1 173
r 0.310168 2 3 cbr 210 ------- 0 2.0 3.1 80 167
+ 0.31125 2 3 cbr 210 ------- 0 2.0 3.1 83 174
- 0.31125 2 3 cbr 210 ------- 0 2.0 3.1 83 174
r 0.313918 2 3 cbr 210 ------- 0 2.0 3.1 81 168
+ 0.315 2 3 cbr 210 ------- 0 2.0 3.1 84 175
- 0.315 2 3 cbr 210 ------- 0 2.0 3.1 84 175
r 0.317668 2 3 cbr 210 ------- 0 2.0 3.1 82 169
r 0.318196 3 4 rtProtoLS 20 ------- 0 3.3 4.1 -1 170
r 0.318196 5 4 rtProtoLS 20 ------- 0 5.1 4.1 -1 171
r 0.318196 4 5 rtProtoLS 20 ------- 0 4.1 5.1 -1 172
r 0.318196 4 3 rtProtoLS 20 ------- 0 4.1 3.3 -1 173
+ 0.31875 2 3 cbr 210 ------- 0 2.0 3.1 85 176
- 0.31875 2 3 cbr 210 ------- 0 2.0 3.1 85 176
r 0.321418 2 3 cbr 210 ------- 0 2.0 3.1 83 174
+ 0.3225 2 3 cbr 210 ------- 0 2.0 3.1 86 177
- 0.3225 2 3 cbr 210 ------- 0 2.0 3.1 86 177
r 0.325168 2 3 cbr 210 ------- 0 2.0 3.1 84 175
+ 0.32625 2 3 cbr 210 ------- 0 2.0 3.1 87 178
- 0.32625 2 3 cbr 210 ------- 0 2.0 3.1 87 178
r 0.328918 2 3 cbr 210 ------- 0 2.0 3.1 85 176
+ 0.33 2 3 cbr 210 ------- 0 2.0 3.1 88 179
- 0.33 2 3 cbr 210 ------- 0 2.0 3.1 88 179
r 0.332668 2 3 cbr 210 ------- 0 2.0 3.1 86 177
+ 0.33375 2 3 cbr 210 ------- 0 2.0 3.1 89 180
- 0.33375 2 3 cbr 210 ------- 0 2.0 3.1 89 180
r 0.336418 2 3 cbr 210 ------- 0 2.0 3.1 87 178
+ 0.3375 2 3 cbr 210 ------- 0 2.0 3.1 90 181
- 0.3375 2 3 cbr 210 ------- 0 2.0 3.1 90 181
r 0.340168 2 3 cbr 210 ------- 0 2.0 3.1 88 179
+ 0.34125 2 3 cbr 210 ------- 0 2.0 3.1 91 182
- 0.34125 2 3 cbr 210 ------- 0 2.0 3.1 91 182
r 0.343918 2 3 cbr 210 ------- 0 2.0 3.1 89 180
+ 0.345 2 3 cbr 210 ------- 0 2.0 3.1 92 183
- 0.345 2 3 cbr 210 ------- 0 2.0 3.1 92 183
r 0.347668 2 3 cbr 210 ------- 0 2.0 3.1 90 181
+ 0.34875 2 3 cbr 210 ------- 0 2.0 3.1 93 184
- 0.34875 2 3 cbr 210 ------- 0 2.0 3.1 93 184
r 0.351418 2 3 cbr 210 ------- 0 2.0 3.1 91 182
+ 0.3525 2 3 cbr 210 ------- 0 2.0 3.1 94 185
- 0.3525 2 3 cbr 210 ------- 0 2.0 3.1 94 185
r 0.355168 2 3 cbr 210 ------- 0 2.0 3.1 92 183
+ 0.35625 2 3 cbr 210 ------- 0 2.0 3.1 95 186
- 0.35625 2 3 cbr 210 ------- 0 2.0 3.1 95 186
r 0.358918 2 3 cbr 210 ------- 0 2.0 3.1 93 184
+ 0.36 2 3 cbr 210 ------- 0 2.0 3.1 96 187
- 0.36 2 3 cbr 210 ------- 0 2.0 3.1 96 187
r 0.362668 2 3 cbr 210 ------- 0 2.0 3.1 94 185
+ 0.36375 2 3 cbr 210 ------- 0 2.0 3.1 97 188
- 0.36375 2 3 cbr 210 ------- 0 2.0 3.1 97 188
r 0.366418 2 3 cbr 210 ------- 0 2.0 3.1 95 186
+ 0.3675 2 3 cbr 210 ------- 0 2.0 3.1 98 189
- 0.3675 2 3 cbr 210 ------- 0 2.0 3.1 98 189
r 0.370168 2 3 cbr 210 ------- 0 2.0 3.1 96 187
+ 0.37125 2 3 cbr 210 ------- 0 2.0 3.1 99 190
- 0.37125 2 3 cbr 210 ------- 0 2.0 3.1 99 190
r 0.373918 2 3 cbr 210 ------- 0 2.0 3.1 97 188
+ 0.375 2 3 cbr 210 ------- 0 2.0 3.1 100 191
- 0.375 2 3 cbr 210 ------- 0 2.0 3.1 100 191
r 0.377668 2 3 cbr 210 ------- 0 2.0 3.1 98 189
+ 0.37875 2 3 cbr 210 ------- 0 2.0 3.1 101 192
- 0.37875 2 3 cbr 210 ------- 0 2.0 3.1 101 192
r 0.381418 2 3 cbr 210 ------- 0 2.0 3.1 99 190
+ 0.3825 2 3 cbr 210 ------- 0 2.0 3.1 102 193
- 0.3825 2 3 cbr 210 ------- 0 2.0 3.1 102 193
r 0.385168 2 3 cbr 210 ------- 0 2.0 3.1 100 191
+ 0.38625 2 3 cbr 210 ------- 0 2.0 3.1 103 194
- 0.38625 2 3 cbr 210 ------- 0 2.0 3.1 103 194
r 0.388918 2 3 cbr 210 ------- 0 2.0 3.1 101 192
+ 0.39 2 3 cbr 210 ------- 0 2.0 3.1 104 195
- 0.39 2 3 cbr 210 ------- 0 2.0 3.1 104 195
r 0.392668 2 3 cbr 210 ------- 0 2.0 3.1 102 193
+ 0.39375 2 3 cbr 210 ------- 0 2.0 3.1 105 196
- 0.39375 2 3 cbr 210 ------- 0 2.0 3.1 105 196
r 0.396418 2 3 cbr 210 ------- 0 2.0 3.1 103 194
+ 0.3975 2 3 cbr 210 ------- 0 2.0 3.1 106 197
- 0.3975 2 3 cbr 210 ------- 0 2.0 3.1 106 197
+ 0.399578 5 0 rtProtoLS 100 ------- 0 5.1 0.2 -1 198
- 0.399578 5 0 rtProtoLS 100 ------- 0 5.1 0.2 -1 198
+ 0.399578 5 4 rtProtoLS 100 ------- 0 5.1 4.1 -1 199
- 0.399578 5 4 rtProtoLS 100 ------- 0 5.1 4.1 -1 199
r 0.400168 2 3 cbr 210 ------- 0 2.0 3.1 104 195
+ 0.40125 2 3 cbr 210 ------- 0 2.0 3.1 107 200
- 0.40125 2 3 cbr 210 ------- 0 2.0 3.1 107 200
r 0.403918 2 3 cbr 210 ------- 0 2.0 3.1 105 196
+ 0.405 2 3 cbr 210 ------- 0 2.0 3.1 108 201
- 0.405 2 3 cbr 210 ------- 0 2.0 3.1 108 201
r 0.407668 2 3 cbr 210 ------- 0 2.0 3.1 106 197
+ 0.40875 2 3 cbr 210 ------- 0 2.0 3.1 109 202
- 0.40875 2 3 cbr 210 ------- 0 2.0 3.1 109 202
r 0.409658 5 0 rtProtoLS 100 ------- 0 5.1 0.2 -1 198
+ 0.409658 0 5 rtProtoLS 20 ------- 0 0.2 5.1 -1 203
- 0.409658 0 5 rtProtoLS 20 ------- 0 0.2 5.1 -1 203
+ 0.409658 0 1 rtProtoLS 100 ------- 0 0.2 1.1 -1 204
- 0.409658 0 1 rtProtoLS 100 ------- 0 0.2 1.1 -1 204
+ 0.409658 0 4 rtProtoLS 100 ------- 0 0.2 4.1 -1 205
- 0.409658 0 4 rtProtoLS 100 ------- 0 0.2 4.1 -1 205
r 0.409658 5 4 rtProtoLS 100 ------- 0 5.1 4.1 -1 199
+ 0.409658 4 5 rtProtoLS 20 ------- 0 4.1 5.1 -1 206