+ 0.1 0 1 tcp 40 ------- 0 0.0 1.0 0 0
- 0.1 0 1 tcp 40 ------- 0 0.0 1.0 0 0
+ 0.1 1 2 tcp 40 ------- 0 1.1 2.0 0 1
- 0.1 1 2 tcp 40 ------- 0 1.1 2.0 0 1
+ 0.1 2 0 tcp 40 ------- 0 2.1 0.1 0 2
- 0.1 2 0 tcp 40 ------- 0 2.1 0.1 0 2
r 0.11032 0 1 tcp 40 ------- 0 0.0 1.0 0 0
+ 0.11032 1 0 ack 40 ------- 0 1.0 0.0 0 3
- 0.11032 1 0 ack 40 ------- 0 1.0 0.0 0 3
r 0.11032 1 2 tcp 40 ------- 0 1.1 2.0 0 1
+ 0.11032 2 1 ack 40 ------- 0 2.0 1.1 0 4
- 0.11032 2 1 ack 40 ------- 0 2.0 1.1 0 4
r 0.11032 2 0 tcp 40 ------- 0 2.1 0.1 0 2
+ 0.11032 0 2 ack 40 ------- 0 0.1 2.1 0 5
- 0.11032 0 2 ack 40 ------- 0 0.1 2.1 0 5
r 0.12064 1 0 ack 40 ------- 0 1.0 0.0 0 3
+ 0.12064 0 1 tcp 1040 ------- 0 0.0 1.0 1 6
- 0.12064 0 1 tcp 1040 ------- 0 0.0 1.0 1 6
+ 0.12064 0 1 tcp 1040 ------- 0 0.0 1.0 2 7
r 0.12064 2 1 ack 40 ------- 0 2.0 1.1 0 4
+ 0.12064 1 2 tcp 1040 ------- 0 1.1 2.0 1 8
- 0.12064 1 2 tcp 1040 ------- 0 1.1 2.0 1 8
+ 0.12064 1 2 tcp 1040 ------- 0 1.1 2.0 2 9
r 0.12064 0 2 ack 40 ------- 0 0.1 2.1 0 5
+ 0.12064 2 0 tcp 1040 ------- 0 2.1 0.1 1 10
- 0.12064 2 0 tcp 1040 ------- 0 2.1 0.1 1 10
+ 0.12064 2 0 tcp 1040 ------- 0 2.1 0.1 2 11
- 0.12896 0 1 tcp 1040 ------- 0 0.0 1.0 2 7
- 0.12896 1 2 tcp 1040 ------- 0 1.1 2.0 2 9
- 0.12896 2 0 tcp 1040 ------- 0 2.1 0.1 2 11
r 0.13896 0 1 tcp 1040 ------- 0 0.0 1.0 1 6
+ 0.13896 1 0 ack 40 ------- 0 1.0 0.0 1 12
- 0.13896 1 0 ack 40 ------- 0 1.0 0.0 1 12
r 0.13896 1 2 tcp 1040 ------- 0 1.1 2.0 1 8
+ 0.13896 2 1 ack 40 ------- 0 2.0 1.1 1 13
- 0.13896 2 1 ack 40 ------- 0 2.0 1.1 1 13
r 0.13896 2 0 tcp 1040 ------- 0 2.1 0.1 1 10
+ 0.13896 0 2 ack 40 ------- 0 0.1 2.1 1 14
- 0.13896 0 2 ack 40 ------- 0 0.1 2.1 1 14
r 0.14728 0 1 tcp 1040 ------- 0 0.0 1.0 2 7
+ 0.14728 1 0 ack 40 ------- 0 1.0 0.0 2 15
- 0.14728 1 0 ack 40 ------- 0 1.0 0.0 2 15
r 0.14728 1 2 tcp 1040 ------- 0 1.1 2.0 2 9
+ 0.14728 2 1 ack 40 ------- 0 2.0 1.1 2 16
- 0.14728 2 1 ack 40 ------- 0 2.0 1.1 2 16
r 0.14728 2 0 tcp 1040 ------- 0 2.1 0.1 2 11
+ 0.14728 0 2 ack 40 ------- 0 0.1 2.1 2 17
- 0.14728 0 2 ack 40 ------- 0 0.1 2.1 2 17
r 0.14928 1 0 ack 40 ------- 0 1.0 0.0 1 12
+ 0.14928 0 1 tcp 1040 ------- 0 0.0 1.0 3 18
- 0.14928 0 1 tcp 1040 ------- 0 0.0 1.0 3 18
+ 0.14928 0 1 tcp 1040 ------- 0 0.0 1.0 4 19
r 0.14928 2 1 ack 40 ------- 0 2.0 1.1 1 13
+ 0.14928 1 2 tcp 1040 ------- 0 1.1 2.0 3 20
- 0.14928 1 2 tcp 1040 ------- 0 1.1 2.0 3 20
+ 0.14928 1 2 tcp 1040 ------- 0 1.1 2.0 4 21
r 0.14928 0 2 ack 40 ------- 0 0.1 2.1 1 14
+ 0.14928 2 0 tcp 1040 ------- 0 2.1 0.1 3 22
- 0.14928 2 0 tcp 1040 ------- 0 2.1 0.1 3 22
+ 0.14928 2 0 tcp 1040 ------- 0 2.1 0.1 4 23
r 0.1576 1 0 ack 40 ------- 0 1.0 0.0 2 15
+ 0.1576 0 1 tcp 1040 ------- 0 0.0 1.0 5 24
d 0.1576 0 1 tcp 1040 ------- 0 0.0 1.0 5 24
+ 0.1576 0 1 tcp 1040 ------- 0 0.0 1.0 6 25
d 0.1576 0 1 tcp 1040 ------- 0 0.0 1.0 6 25
r 0.1576 2 1 ack 40 ------- 0 2.0 1.1 2 16
+ 0.1576 1 2 tcp 1040 ------- 0 1.1 2.0 5 26
+ 0.1576 1 2 tcp 1040 ------- 0 1.1 2.0 6 27
d 0.1576 1 2 tcp 1040 ------- 0 1.1 2.0 6 27
r 0.1576 0 2 ack 40 ------- 0 0.1 2.1 2 17
+ 0.1576 2 0 tcp 1040 ------- 0 2.1 0.1 5 28
+ 0.1576 2 0 tcp 1040 ------- 0 2.1 0.1 6 29
d 0.1576 2 0 tcp 1040 ------- 0 2.1 0.1 6 29
- 0.1576 0 1 tcp 1040 ------- 0 0.0 1.0 4 19
- 0.1576 1 2 tcp 1040 ------- 0 1.1 2.0 4 21
- 0.1576 2 0 tcp 1040 ------- 0 2.1 0.1 4 23
- 0.16592 1 2 tcp 1040 ------- 0 1.1 2.0 5 26
- 0.16592 2 0 tcp 1040 ------- 0 2.1 0.1 5 28
r 0.1676 0 1 tcp 1040 ------- 0 0.0 1.0 3 18
+ 0.1676 1 0 ack 40 ------- 0 1.0 0.0 3 30
- 0.1676 1 0 ack 40 ------- 0 1.0 0.0 3 30
r 0.1676 1 2 tcp 1040 ------- 0 1.1 2.0 3 20
+ 0.1676 2 1 ack 40 ------- 0 2.0 1.1 3 31
- 0.1676 2 1 ack 40 ------- 0 2.0 1.1 3 31
r 0.1676 2 0 tcp 1040 ------- 0 2.1 0.1 3 22
+ 0.1676 0 2 ack 40 ------- 0 0.1 2.1 3 32
- 0.1676 0 2 ack 40 ------- 0 0.1 2.1 3 32
r 0.17592 0 1 tcp 1040 ------- 0 0.0 1.0 4 19
+ 0.17592 1 0 ack 40 ------- 0 1.0 0.0 4 33
- 0.17592 1 0 ack 40 ------- 0 1.0 0.0 4 33
r 0.17592 1 2 tcp 1040 ------- 0 1.1 2.0 4 21
+ 0.17592 2 1 ack 40 ------- 0 2.0 1.1 4 34
- 0.17592 2 1 ack 40 ------- 0 2.0 1.1 4 34
r 0.17592 2 0 tcp 1040 ------- 0 2.1 0.1 4 23
+ 0.17592 0 2 ack 40 ------- 0 0.1 2.1 4 35
- 0.17592 0 2 ack 40 ------- 0 0.1 2.1 4 35
r 0.17792 1 0 ack 40 ------- 0 1.0 0.0 3 30
+ 0.17792 0 1 tcp 1040 ------- 0 0.0 1.0 7 36
- 0.17792 0 1 tcp 1040 ------- 0 0.0 1.0 7 36
+ 0.17792 0 1 tcp 1040 ------- 0 0.0 1.0 8 37
r 0.17792 2 1 ack 40 ------- 0 2.0 1.1 3 31
+ 0.17792 1 2 tcp 1040 ------- 0 1.1 2.0 7 38
- 0.17792 1 2 tcp 1040 ------- 0 1.1 2.0 7 38
+ 0.17792 1 2 tcp 1040 ------- 0 1.1 2.0 8 39
r 0.17792 0 2 ack 40 ------- 0 0.1 2.1 3 32
+ 0.17792 2 0 tcp 1040 ------- 0 2.1 0.1 7 40
- 0.17792 2 0 tcp 1040 ------- 0 2.1 0.1 7 40
+ 0.17792 2 0 tcp 1040 ------- 0 2.1 0.1 8 41
r 0.18424 1 2 tcp 1040 ------- 0 1.1 2.0 5 26
+ 0.18424 2 1 ack 40 ------- 0 2.0 1.1 5 42
- 0.18424 2 1 ack 40 ------- 0 2.0 1.1 5 42
r 0.18424 2 0 tcp 1040 ------- 0 2.1 0.1 5 28
+ 0.18424 0 2 ack 40 ------- 0 0.1 2.1 5 43
- 0.18424 0 2 ack 40 ------- 0 0.1 2.1 5 43
r 0.18624 1 0 ack 40 ------- 0 1.0 0.0 4 33
+ 0.18624 0 1 tcp 1040 ------- 0 0.0 1.0 9 44
d 0.18624 0 1 tcp 1040 ------- 0 0.0 1.0 9 44
+ 0.18624 0 1 tcp 1040 ------- 0 0.0 1.0 10 45
d 0.18624 0 1 tcp 1040 ------- 0 0.0 1.0 10 45
r 0.18624 2 1 ack 40 ------- 0 2.0 1.1 4 34
+ 0.18624 1 2 tcp 1040 ------- 0 1.1 2.0 9 46
+ 0.18624 1 2 tcp 1040 ------- 0 1.1 2.0 10 47
d 0.18624 1 2 tcp 1040 ------- 0 1.1 2.0 10 47
r 0.18624 0 2 ack 40 ------- 0 0.1 2.1 4 35
+ 0.18624 2 0 tcp 1040 ------- 0 2.1 0.1 9 48
+ 0.18624 2 0 tcp 1040 ------- 0 2.1 0.1 10 49
d 0.18624 2 0 tcp 1040 ------- 0 2.1 0.1 10 49
- 0.18624 0 1 tcp 1040 ------- 0 0.0 1.0 8 37
- 0.18624 1 2 tcp 1040 ------- 0 1.1 2.0 8 39
- 0.18624 2 0 tcp 1040 ------- 0 2.1 0.1 8 41
r 0.19456 2 1 ack 40 ------- 0 2.0 1.1 5 42
+ 0.19456 1 2 tcp 1040 ------- 0 1.1 2.0 11 50
+ 0.19456 1 2 tcp 1040 ------- 0 1.1 2.0 12 51
d 0.19456 1 2 tcp 1040 ------- 0 1.1 2.0 12 51
r 0.19456 0 2 ack 40 ------- 0 0.1 2.1 5 43
+ 0.19456 2 0 tcp 1040 ------- 0 2.1 0.1 11 52
+ 0.19456 2 0 tcp 1040 ------- 0 2.1 0.1 12 53
d 0.19456 2 0 tcp 1040 ------- 0 2.1 0.1 12 53
- 0.19456 1 2 tcp 1040 ------- 0 1.1 2.0 9 46
- 0.19456 2 0 tcp 1040 ------- 0 2.1 0.1 9 48
r 0.19624 0 1 tcp 1040 ------- 0 0.0 1.0 7 36
+ 0.19624 1 0 ack 40 ------- 0 1.0 0.0 4 54
- 0.19624 1 0 ack 40 ------- 0 1.0 0.0 4 54
r 0.19624 1 2 tcp 1040 ------- 0 1.1 2.0 7 38
+ 0.19624 2 1 ack 40 ------- 0 2.0 1.1 5 55
- 0.19624 2 1 ack 40 ------- 0 2.0 1.1 5 55
r 0.19624 2 0 tcp 1040 ------- 0 2.1 0.1 7 40
+ 0.19624 0 2 ack 40 ------- 0 0.1 2.1 5 56
- 0.19624 0 2 ack 40 ------- 0 0.1 2.1 5 56
- 0.20288 1 2 tcp 1040 ------- 0 1.1 2.0 11 50
- 0.20288 2 0 tcp 1040 ------- 0 2.1 0.1 11 52
r 0.20456 0 1 tcp 1040 ------- 0 0.0 1.0 8 37
+ 0.20456 1 0 ack 40 ------- 0 1.0 0.0 4 57
- 0.20456 1 0 ack 40 ------- 0 1.0 0.0 4 57
r 0.20456 1 2 tcp 1040 ------- 0 1.1 2.0 8 39
+ 0.20456 2 1 ack 40 ------- 0 2.0 1.1 5 58
- 0.20456 2 1 ack 40 ------- 0 2.0 1.1 5 58
r 0.20456 2 0 tcp 1040 ------- 0 2.1 0.1 8 41
+ 0.20456 0 2 ack 40 ------- 0 0.1 2.1 5 59
- 0.20456 0 2 ack 40 ------- 0 0.1 2.1 5 59
r 0.20656 1 0 ack 40 ------- 0 1.0 0.0 4 54
+ 0.20656 0 1 tcp 1040 ------- 0 0.0 1.0 11 60
- 0.20656 0 1 tcp 1040 ------- 0 0.0 1.0 11 60
r 0.20656 2 1 ack 40 ------- 0 2.0 1.1 5 55
+ 0.20656 1 2 tcp 1040 ------- 0 1.1 2.0 13 61
r 0.20656 0 2 ack 40 ------- 0 0.1 2.1 5 56
+ 0.20656 2 0 tcp 1040 ------- 0 2.1 0.1 13 62
- 0.2112 1 2 tcp 1040 ------- 0 1.1 2.0 13 61
- 0.2112 2 0 tcp 1040 ------- 0 2.1 0.1 13 62
r 0.21288 1 2 tcp 1040 ------- 0 1.1 2.0 9 46
+ 0.21288 2 1 ack 40 ------- 0 2.0 1.1 5 63
- 0.21288 2 1 ack 40 ------- 0 2.0 1.1 5 63
r 0.21288 2 0 tcp 1040 ------- 0 2.1 0.1 9 48
+ 0.21288 0 2 ack 40 ------- 0 0.1 2.1 5 64
- 0.21288 0 2 ack 40 ------- 0 0.1 2.1 5 64
r 0.21488 1 0 ack 40 ------- 0 1.0 0.0 4 57
+ 0.21488 0 1 tcp 1040 ------- 0 0.0 1.0 12 65
r 0.21488 2 1 ack 40 ------- 0 2.0 1.1 5 58
+ 0.21488 1 2 tcp 1040 ------- 0 1.1 2.0 14 66
r 0.21488 0 2 ack 40 ------- 0 0.1 2.1 5 59
+ 0.21488 2 0 tcp 1040 ------- 0 2.1 0.1 14 67
- 0.21488 0 1 tcp 1040 ------- 0 0.0 1.0 12 65
- 0.21952 1 2 tcp 1040 ------- 0 1.1 2.0 14 66
- 0.21952 2 0 tcp 1040 ------- 0 2.1 0.1 14 67
r 0.2212 1 2 tcp 1040 ------- 0 1.1 2.0 11 50
+ 0.2212 2 1 ack 40 ------- 0 2.0 1.1 5 68
- 0.2212 2 1 ack 40 ------- 0 2.0 1.1 5 68
r 0.2212 2 0 tcp 1040 ------- 0 2.1 0.1 11 52
+ 0.2212 0 2 ack 40 ------- 0 0.1 2.1 5 69
- 0.2212 0 2 ack 40 ------- 0 0.1 2.1 5 69
r 0.2232 2 1 ack 40 ------- 0 2.0 1.1 5 63
+ 0.2232 1 2 tcp 1040 ---A--- 0 1.1 2.0 6 70
r 0.2232 0 2 ack 40 ------- 0 0.1 2.1 5 64
+ 0.2232 2 0 tcp 1040 ---A--- 0 2.1 0.1 6 71
r 0.22488 0 1 tcp 1040 ------- 0 0.0 1.0 11 60
+ 0.22488 1 0 ack 40 ------- 0 1.0 0.0 4 72
- 0.22488 1 0 ack 40 ------- 0 1.0 0.0 4 72
- 0.22784 1 2 tcp 1040 ---A--- 0 1.1 2.0 6 70
- 0.22784 2 0 tcp 1040 ---A--- 0 2.1 0.1 6 71
r 0.22952 1 2 tcp 1040 ------- 0 1.1 2.0 13 61
+ 0.22952 2 1 ack 40 ------- 0 2.0 1.1 5 73
- 0.22952 2 1 ack 40 ------- 0 2.0 1.1 5 73
r 0.22952 2 0 tcp 1040 ------- 0 2.1 0.1 13 62
+ 0.22952 0 2 ack 40 ------- 0 0.1 2.1 5 74
- 0.22952 0 2 ack 40 ------- 0 0.1 2.1 5 74
r 0.23152 2 1 ack 40 ------- 0 2.0 1.1 5 68
r 0.23152 0 2 ack 40 ------- 0 0.1 2.1 5 69
r 0.2332 0 1 tcp 1040 ------- 0 0.0 1.0 12 65
+ 0.2332 1 0 ack 40 ------- 0 1.0 0.0 4 75
- 0.2332 1 0 ack 40 ------- 0 1.0 0.0 4 75
r 0.2352 1 0 ack 40 ------- 0 1.0 0.0 4 72
+ 0.2352 0 1 tcp 1040 ---A--- 0 0.0 1.0 5 76
- 0.2352 0 1 tcp 1040 ---A--- 0 0.0 1.0 5 76
r 0.23784 1 2 tcp 1040 ------- 0 1.1 2.0 14 66
+ 0.23784 2 1 ack 40 ------- 0 2.0 1.1 5 77
- 0.23784 2 1 ack 40 ------- 0 2.0 1.1 5 77
r 0.23784 2 0 tcp 1040 ------- 0 2.1 0.1 14 67
+ 0.23784 0 2 ack 40 ------- 0 0.1 2.1 5 78
- 0.23784 0 2 ack 40 ------- 0 0.1 2.1 5 78
r 0.23984 2 1 ack 40 ------- 0 2.0 1.1 5 73
r 0.23984 0 2 ack 40 ------- 0 0.1 2.1 5 74
r 0.24352 1 0 ack 40 ------- 0 1.0 0.0 4 75
r 0.24616 1 2 tcp 1040 ---A--- 0 1.1 2.0 6 70
+ 0.24616 2 1 ack 40 ------- 0 2.0 1.1 9 79
- 0.24616 2 1 ack 40 ------- 0 2.0 1.1 9 79
r 0.24616 2 0 tcp 1040 ---A--- 0 2.1 0.1 6 71
+ 0.24616 0 2 ack 40 ------- 0 0.1 2.1 9 80
- 0.24616 0 2 ack 40 ------- 0 0.1 2.1 9 80
r 0.24816 2 1 ack 40 ------- 0 2.0 1.1 5 77
r 0.24816 0 2 ack 40 ------- 0 0.1 2.1 5 78
r 0.25352 0 1 tcp 1040 ---A--- 0 0.0 1.0 5 76
+ 0.25352 1 0 ack 40 ------- 0 1.0 0.0 5 81
- 0.25352 1 0 ack 40 ------- 0 1.0 0.0 5 81
r 0.25648 2 1 ack 40 ------- 0 2.0 1.1 9 79
+ 0.25648 1 2 tcp 1040 ------- 0 1.1 2.0 10 82
- 0.25648 1 2 tcp 1040 ------- 0 1.1 2.0 10 82
+ 0.25648 1 2 tcp 1040 ------- 0 1.1 2.0 11 83
r 0.25648 0 2 ack 40 ------- 0 0.1 2.1 9 80
+ 0.25648 2 0 tcp 1040 ------- 0 2.1 0.1 10 84
- 0.25648 2 0 tcp 1040 ------- 0 2.1 0.1 10 84
+ 0.25648 2 0 tcp 1040 ------- 0 2.1 0.1 11 85
r 0.26384 1 0 ack 40 ------- 0 1.0 0.0 5 81
+ 0.26384 0 1 tcp 1040 ------- 0 0.0 1.0 6 86
- 0.26384 0 1 tcp 1040 ------- 0 0.0 1.0 6 86
+ 0.26384 0 1 tcp 1040 ------- 0 0.0 1.0 7 87
- 0.2648 1 2 tcp 1040 ------- 0 1.1 2.0 11 83
- 0.2648 2 0 tcp 1040 ------- 0 2.1 0.1 11 85
- 0.27216 0 1 tcp 1040 ------- 0 0.0 1.0 7 87
r 0.2748 1 2 tcp 1040 ------- 0 1.1 2.0 10 82
+ 0.2748 2 1 ack 40 ------- 0 2.0 1.1 11 88
- 0.2748 2 1 ack 40 ------- 0 2.0 1.1 11 88
r 0.2748 2 0 tcp 1040 ------- 0 2.1 0.1 10 84
+ 0.2748 0 2 ack 40 ------- 0 0.1 2.1 11 89
- 0.2748 0 2 ack 40 ------- 0 0.1 2.1 11 89
r 0.28216 0 1 tcp 1040 ------- 0 0.0 1.0 6 86
+ 0.28216 1 0 ack 40 ------- 0 1.0 0.0 8 90
- 0.28216 1 0 ack 40 ------- 0 1.0 0.0 8 90
r 0.28312 1 2 tcp 1040 ------- 0 1.1 2.0 11 83
+ 0.28312 2 1 ack 40 ------- 0 2.0 1.1 11 91
- 0.28312 2 1 ack 40 ------- 0 2.0 1.1 11 91
r 0.28312 2 0 tcp 1040 ------- 0 2.1 0.1 11 85
+ 0.28312 0 2 ack 40 ------- 0 0.1 2.1 11 92
- 0.28312 0 2 ack 40 ------- 0 0.1 2.1 11 92
r 0.28512 2 1 ack 40 ------- 0 2.0 1.1 11 88
+ 0.28512 1 2 tcp 1040 ------- 0 1.1 2.0 12 93
- 0.28512 1 2 tcp 1040 ------- 0 1.1 2.0 12 93
+ 0.28512 1 2 tcp 1040 ------- 0 1.1 2.0 13 94
+ 0.28512 1 2 tcp 1040 ------- 0 1.1 2.0 14 95
r 0.28512 0 2 ack 40 ------- 0 0.1 2.1 11 89
+ 0.28512 2 0 tcp 1040 ------- 0 2.1 0.1 12 96
- 0.28512 2 0 tcp 1040 ------- 0 2.1 0.1 12 96
+ 0.28512 2 0 tcp 1040 ------- 0 2.1 0.1 13 97
+ 0.28512 2 0 tcp 1040 ------- 0 2.1 0.1 14 98
r 0.29048 0 1 tcp 1040 ------- 0 0.0 1.0 7 87
+ 0.29048 1 0 ack 40 ------- 0 1.0 0.0 8 99
- 0.29048 1 0 ack 40 ------- 0 1.0 0.0 8 99
r 0.29248 1 0 ack 40 ------- 0 1.0 0.0 8 90
+ 0.29248 0 1 tcp 1040 ------- 0 0.0 1.0 9 100
- 0.29248 0 1 tcp 1040 ------- 0 0.0 1.0 9 100
+ 0.29248 0 1 tcp 1040 ------- 0 0.0 1.0 10 101
+ 0.29248 0 1 tcp 1040 ------- 0 0.0 1.0 11 102
d 0.29248 0 1 tcp 1040 ------- 0 0.0 1.0 11 102
r 0.29344 2 1 ack 40 ------- 0 2.0 1.1 11 91
+ 0.29344 1 2 tcp 1040 ------- 0 1.1 2.0 15 103
d 0.29344 1 2 tcp 1040 ------- 0 1.1 2.0 15 103
r 0.29344 0 2 ack 40 ------- 0 0.1 2.1 11 92
+ 0.29344 2 0 tcp 1040 ------- 0 2.1 0.1 15 104
d 0.29344 2 0 tcp 1040 ------- 0 2.1 0.1 15 104
- 0.29344 1 2 tcp 1040 ------- 0 1.1 2.0 13 94
- 0.29344 2 0 tcp 1040 ------- 0 2.1 0.1 13 97
r 0.3008 1 0 ack 40 ------- 0 1.0 0.0 8 99
+ 0.3008 0 1 tcp 1040 ------- 0 0.0 1.0 12 105
d 0.3008 0 1 tcp 1040 ------- 0 0.0 1.0 12 105
- 0.3008 0 1 tcp 1040 ------- 0 0.0 1.0 10 101
- 0.30176 1 2 tcp 1040 ------- 0 1.1 2.0 14 95
- 0.30176 2 0 tcp 1040 ------- 0 2.1 0.1 14 98
r 0.30344 1 2 tcp 1040 ------- 0 1.1 2.0 12 93
+ 0.30344 2 1 ack 40 ------- 0 2.0 1.1 14 106
- 0.30344 2 1 ack 40 ------- 0 2.0 1.1 14 106
r 0.30344 2 0 tcp 1040 ------- 0 2.1 0.1 12 96
+ 0.30344 0 2 ack 40 ------- 0 0.1 2.1 14 107
- 0.30344 0 2 ack 40 ------- 0 0.1 2.1 14 107
r 0.3108 0 1 tcp 1040 ------- 0 0.0 1.0 9 100
+ 0.3108 1 0 ack 40 ------- 0 1.0 0.0 9 108
- 0.3108 1 0 ack 40 ------- 0 1.0 0.0 9 108
r 0.31176 1 2 tcp 1040 ------- 0 1.1 2.0 13 94
+ 0.31176 2 1 ack 40 ------- 0 2.0 1.1 14 109
- 0.31176 2 1 ack 40 ------- 0 2.0 1.1 14 109
r 0.31176 2 0 tcp 1040 ------- 0 2.1 0.1 13 97
+ 0.31176 0 2 ack 40 ------- 0 0.1 2.1 14 110
- 0.31176 0 2 ack 40 ------- 0 0.1 2.1 14 110
r 0.31376 2 1 ack 40 ------- 0 2.0 1.1 14 106
+ 0.31376 1 2 tcp 1040 ------- 0 1.1 2.0 16 111
- 0.31376 1 2 tcp 1040 ------- 0 1.1 2.0 16 111
+ 0.31376 1 2 tcp 1040 ------- 0 1.1 2.0 17 112
r 0.31376 0 2 ack 40 ------- 0 0.1 2.1 14 107
+ 0.31376 2 0 tcp 1040 ------- 0 2.1 0.1 16 113
- 0.31376 2 0 tcp 1040 ------- 0 2.1 0.1 16 113
+ 0.31376 2 0 tcp 1040 ------- 0 2.1 0.1 17 114
r 0.31912 0 1 tcp 1040 ------- 0 0.0 1.0 10 101
+ 0.31912 1 0 ack 40 ------- 0 1.0 0.0 12 115
- 0.31912 1 0 ack 40 ------- 0 1.0 0.0 12 115
r 0.32008 1 2 tcp 1040 ------- 0 1.1 2.0 14 95
+ 0.32008 2 1 ack 40 ------- 0 2.0 1.1 14 116
- 0.32008 2 1 ack 40 ------- 0 2.0 1.1 14 116
r 0.32008 2 0 tcp 1040 ------- 0 2.1 0.1 14 98
+ 0.32008 0 2 ack 40 ------- 0 0.1 2.1 14 117
- 0.32008 0 2 ack 40 ------- 0 0.1 2.1 14 117
r 0.32112 1 0 ack 40 ------- 0 1.0 0.0 9 108
r 0.32208 2 1 ack 40 ------- 0 2.0 1.1 14 109
+ 0.32208 1 2 tcp 1040 ------- 0 1.1 2.0 18 118
r 0.32208 0 2 ack 40 ------- 0 0.1 2.1 14 110
+ 0.32208 2 0 tcp 1040 ------- 0 2.1 0.1 18 119
- 0.32208 1 2 tcp 1040 ------- 0 1.1 2.0 17 112
- 0.32208 2 0 tcp 1040 ------- 0 2.1 0.1 17 114
r 0.32944 1 0 ack 40 ------- 0 1.0 0.0 12 115
+ 0.32944 0 1 tcp 1040 ------- 0 0.0 1.0 13 120
- 0.32944 0 1 tcp 1040 ------- 0 0.0 1.0 13 120
+ 0.32944 0 1 tcp 1040 ------- 0 0.0 1.0 14 121
+ 0.32944 0 1 tcp 1040 ------- 0 0.0 1.0 15 122
d 0.32944 0 1 tcp 1040 ------- 0 0.0 1.0 15 122
r 0.3304 2 1 ack 40 ------- 0 2.0 1.1 14 116
+ 0.3304 1 2 tcp 1040 ------- 0 1.1 2.0 19 123
r 0.3304 0 2 ack 40 ------- 0 0.1 2.1 14 117
+ 0.3304 2 0 tcp 1040 ------- 0 2.1 0.1 19 124
- 0.3304 1 2 tcp 1040 ------- 0 1.1 2.0 18 118
- 0.3304 2 0 tcp 1040 ------- 0 2.1 0.1 18 119
r 0.33208 1 2 tcp 1040 ------- 0 1.1 2.0 16 111
+ 0.33208 2 1 ack 40 ------- 0 2.0 1.1 14 125
- 0.33208 2 1 ack 40 ------- 0 2.0 1.1 14 125
r 0.33208 2 0 tcp 1040 ------- 0 2.1 0.1 16 113
+ 0.33208 0 2 ack 40 ------- 0 0.1 2.1 14 126
- 0.33208 0 2 ack 40 ------- 0 0.1 2.1 14 126
- 0.33776 0 1 tcp 1040 ------- 0 0.0 1.0 14 121
- 0.33872 1 2 tcp 1040 ------- 0 1.1 2.0 19 123
- 0.33872 2 0 tcp 1040 ------- 0 2.1 0.1 19 124
r 0.3404 1 2 tcp 1040 ------- 0 1.1 2.0 17 112
+ 0.3404 2 1 ack 40 ------- 0 2.0 1.1 14 127
- 0.3404 2 1 ack 40 ------- 0 2.0 1.1 14 127
r 0.3404 2 0 tcp 1040 ------- 0 2.1 0.1 17 114
+ 0.3404 0 2 ack 40 ------- 0 0.1 2.1 14 128
- 0.3404 0 2 ack 40 ------- 0 0.1 2.1 14 128
r 0.3424 2 1 ack 40 ------- 0 2.0 1.1 14 125
r 0.3424 0 2 ack 40 ------- 0 0.1 2.1 14 126
r 0.34776 0 1 tcp 1040 ------- 0 0.0 1.0 13 120
+ 0.34776 1 0 ack 40 ------- 0 1.0 0.0 13 129
- 0.34776 1 0 ack 40 ------- 0 1.0 0.0 13 129
r 0.34872 1 2 tcp 1040 ------- 0 1.1 2.0 18 118
+ 0.34872 2 1 ack 40 ------- 0 2.0 1.1 14 130
- 0.34872 2 1 ack 40 ------- 0 2.0 1.1 14 130
r 0.34872 2 0 tcp 1040 ------- 0 2.1 0.1 18 119
+ 0.34872 0 2 ack 40 ------- 0 0.1 2.1 14 131
- 0.34872 0 2 ack 40 ------- 0 0.1 2.1 14 131
r 0.35072 2 1 ack 40 ------- 0 2.0 1.1 14 127
r 0.35072 0 2 ack 40 ------- 0 0.1 2.1 14 128
r 0.35608 0 1 tcp 1040 ------- 0 0.0 1.0 14 121
+ 0.35608 1 0 ack 40 ------- 0 1.0 0.0 14 132
- 0.35608 1 0 ack 40 ------- 0 1.0 0.0 14 132
r 0.35704 1 2 tcp 1040 ------- 0 1.1 2.0 19 123
+ 0.35704 2 1 ack 40 ------- 0 2.0 1.1 14 133
- 0.35704 2 1 ack 40 ------- 0 2.0 1.1 14 133
r 0.35704 2 0 tcp 1040 ------- 0 2.1 0.1 19 124
+ 0.35704 0 2 ack 40 ------- 0 0.1 2.1 14 134
- 0.35704 0 2 ack 40 ------- 0 0.1 2.1 14 134
r 0.35808 1 0 ack 40 ------- 0 1.0 0.0 13 129
+ 0.35808 0 1 tcp 1040 ------- 0 0.0 1.0 16 135
- 0.35808 0 1 tcp 1040 ------- 0 0.0 1.0 16 135
r 0.35904 2 1 ack 40 ------- 0 2.0 1.1 14 130
r 0.35904 0 2 ack 40 ------- 0 0.1 2.1 14 131
r 0.3664 1 0 ack 40 ------- 0 1.0 0.0 14 132
+ 0.3664 0 1 tcp 1040 ------- 0 0.0 1.0 17 136
+ 0.3664 0 1 tcp 1040 ------- 0 0.0 1.0 18 137
d 0.3664 0 1 tcp 1040 ------- 0 0.0 1.0 18 137
- 0.3664 0 1 tcp 1040 ------- 0 0.0 1.0 17 136
r 0.36736 2 1 ack 40 ------- 0 2.0 1.1 14 133
r 0.36736 0 2 ack 40 ------- 0 0.1 2.1 14 134
r 0.3764 0 1 tcp 1040 ------- 0 0.0 1.0 16 135
+ 0.3764 1 0 ack 40 ------- 0 1.0 0.0 14 138
- 0.3764 1 0 ack 40 ------- 0 1.0 0.0 14 138
r 0.38472 0 1 tcp 1040 ------- 0 0.0 1.0 17 136
+ 0.38472 1 0 ack 40 ------- 0 1.0 0.0 14 139
- 0.38472 1 0 ack 40 ------- 0 1.0 0.0 14 139
r 0.38672 1 0 ack 40 ------- 0 1.0 0.0 14 138
+ 0.38672 0 1 tcp 1040 ------- 0 0.0 1.0 19 140
- 0.38672 0 1 tcp 1040 ------- 0 0.0 1.0 19 140
r 0.39504 1 0 ack 40 ------- 0 1.0 0.0 14 139
+ 0.39504 0 1 tcp 1040 ------- 0 0.0 1.0 20 141
- 0.39504 0 1 tcp 1040 ------- 0 0.0 1.0 20 141
r 0.40504 0 1 tcp 1040 ------- 0 0.0 1.0 19 140
+ 0.40504 1 0 ack 40 ------- 0 1.0 0.0 14 142
- 0.40504 1 0 ack 40 ------- 0 1.0 0.0 14 142
r 0.41336 0 1 tcp 1040 ------- 0 0.0 1.0 20 141
+ 0.41336 1 0 ack 40 ------- 0 1.0 0.0 14 143
- 0.41336 1 0 ack 40 ------- 0 1.0 0.0 14 143
r 0.41536 1 0 ack 40 ------- 0 1.0 0.0 14 142
+ 0.41536 0 1 tcp 1040 ---A--- 0 0.0 1.0 15 144
- 0.41536 0 1 tcp 1040 ---A--- 0 0.0 1.0 15 144
r 0.42368 1 0 ack 40 ------- 0 1.0 0.0 14 143
r 0.43368 0 1 tcp 1040 ---A--- 0 0.0 1.0 15 144
+ 0.43368 1 0 ack 40 ------- 0 1.0 0.0 17 145
- 0.43368 1 0 ack 40 ------- 0 1.0 0.0 17 145
r 0.444 1 0 ack 40 ------- 0 1.0 0.0 17 145
+ 0.444 0 1 tcp 1040 ------- 0 0.0 1.0 18 146
- 0.444 0 1 tcp 1040 ------- 0 0.0 1.0 18 146
+ 0.444 0 1 tcp 1040 ------- 0 0.0 1.0 19 147
- 0.45232 0 1 tcp 1040 ------- 0 0.0 1.0 19 147
r 0.46232 0 1 tcp 1040 ------- 0 0.0 1.0 18 146
+ 0.46232 1 0 ack 40 ------- 0 1.0 0.0 20 148
- 0.46232 1 0 ack 40 ------- 0 1.0 0.0 20 148
r 0.47064 0 1 tcp 1040 ------- 0 0.0 1.0 19 147
+ 0.47064 1 0 ack 40 ------- 0 1.0 0.0 20 149
- 0.47064 1 0 ack 40 ------- 0 1.0 0.0 20 149
r 0.47264 1 0 ack 40 ------- 0 1.0 0.0 20 148
+ 0.47264 0 1 tcp 1040 ------- 0 0.0 1.0 21 150
- 0.47264 0 1 tcp 1040 ------- 0 0.0 1.0 21 150
+ 0.47264 0 1 tcp 1040 ------- 0 0.0 1.0 22 151
r 0.48096 1 0 ack 40 ------- 0 1.0 0.0 20 149
+ 0.48096 0 1 tcp 1040 ------- 0 0.0 1.0 23 152
d 0.48096 0 1 tcp 1040 ------- 0 0.0 1.0 23 152
- 0.48096 0 1 tcp 1040 ------- 0 0.0 1.0 22 151
r 0.49096 0 1 tcp 1040 ------- 0 0.0 1.0 21 150
+ 0.49096 1 0 ack 40 ------- 0 1.0 0.0 21 153
- 0.49096 1 0 ack 40 ------- 0 1.0 0.0 21 153
r 0.49928 0 1 tcp 1040 ------- 0 0.0 1.0 22 151
+ 0.49928 1 0 ack 40 ------- 0 1.0 0.0 22 154
- 0.49928 1 0 ack 40 ------- 0 1.0 0.0 22 154
r 0.50128 1 0 ack 40 ------- 0 1.0 0.0 21 153
r 0.5096 1 0 ack 40 ------- 0 1.0 0.0 22 154
+ 0.5096 0 1 tcp 1040 ------- 0 0.0 1.0 24 155
- 0.5096 0 1 tcp 1040 ------- 0 0.0 1.0 24 155
+ 0.5096 0 1 tcp 1040 ------- 0 0.0 1.0 25 156
+ 0.51376 1 2 tcp 1040 ---A--- 0 1.1 2.0 15 157
- 0.51376 1 2 tcp 1040 ---A--- 0 1.1 2.0 15 157
+ 0.51376 2 0 tcp 1040 ---A--- 0 2.1 0.1 15 158
- 0.51376 2 0 tcp 1040 ---A--- 0 2.1 0.1 15 158
- 0.51792 0 1 tcp 1040 ------- 0 0.0 1.0 25 156
r 0.52792 0 1 tcp 1040 ------- 0 0.0 1.0 24 155
+ 0.52792 1 0 ack 40 ------- 0 1.0 0.0 22 159
- 0.52792 1 0 ack 40 ------- 0 1.0 0.0 22 159
r 0.53208 1 2 tcp 1040 ---A--- 0 1.1 2.0 15 157
+ 0.53208 2 1 ack 40 ------- 0 2.0 1.1 19 160
- 0.53208 2 1 ack 40 ------- 0 2.0 1.1 19 160
r 0.53208 2 0 tcp 1040 ---A--- 0 2.1 0.1 15 158
+ 0.53208 0 2 ack 40 ------- 0 0.1 2.1 19 161
- 0.53208 0 2 ack 40 ------- 0 0.1 2.1 19 161
r 0.53624 0 1 tcp 1040 ------- 0 0.0 1.0 25 156
+ 0.53624 1 0 ack 40 ------- 0 1.0 0.0 22 162
- 0.53624 1 0 ack 40 ------- 0 1.0 0.0 22 162
r 0.53824 1 0 ack 40 ------- 0 1.0 0.0 22 159
+ 0.53824 0 1 tcp 1040 ------- 0 0.0 1.0 26 163
- 0.53824 0 1 tcp 1040 ------- 0 0.0 1.0 26 163
r 0.5424 2 1 ack 40 ------- 0 2.0 1.1 19 160
+ 0.5424 1 2 tcp 1040 ------- 0 1.1 2.0 20 164
- 0.5424 1 2 tcp 1040 ------- 0 1.1 2.0 20 164
+ 0.5424 1 2 tcp 1040 ------- 0 1.1 2.0 21 165
r 0.5424 0 2 ack 40 ------- 0 0.1 2.1 19 161
+ 0.5424 2 0 tcp 1040 ------- 0 2.1 0.1 20 166
- 0.5424 2 0 tcp 1040 ------- 0 2.1 0.1 20 166
+ 0.5424 2 0 tcp 1040 ------- 0 2.1 0.1 21 167
r 0.54656 1 0 ack 40 ------- 0 1.0 0.0 22 162
+ 0.54656 0 1 tcp 1040 ------- 0 0.0 1.0 27 168
- 0.54656 0 1 tcp 1040 ------- 0 0.0 1.0 27 168
- 0.55072 1 2 tcp 1040 ------- 0 1.1 2.0 21 165
- 0.55072 2 0 tcp 1040 ------- 0 2.1 0.1 21 167
r 0.55656 0 1 tcp 1040 ------- 0 0.0 1.0 26 163
+ 0.55656 1 0 ack 40 ------- 0 1.0 0.0 22 169
- 0.55656 1 0 ack 40 ------- 0 1.0 0.0 22 169
r 0.56072 1 2 tcp 1040 ------- 0 1.1 2.0 20 164
+ 0.56072 2 1 ack 40 ------- 0 2.0 1.1 20 170
- 0.56072 2 1 ack 40 ------- 0 2.0 1.1 20 170
r 0.56072 2 0 tcp 1040 ------- 0 2.1 0.1 20 166
+ 0.56072 0 2 ack 40 ------- 0 0.1 2.1 20 171
- 0.56072 0 2 ack 40 ------- 0 0.1 2.1 20 171
r 0.56488 0 1 tcp 1040 ------- 0 0.0 1.0 27 168
+ 0.56488 1 0 ack 40 ------- 0 1.0 0.0 22 172
- 0.56488 1 0 ack 40 ------- 0 1.0 0.0 22 172
r 0.56688 1 0 ack 40 ------- 0 1.0 0.0 22 169
+ 0.56688 0 1 tcp 1040 ---A--- 0 0.0 1.0 23 173
- 0.56688 0 1 tcp 1040 ---A--- 0 0.0 1.0 23 173
r 0.56904 1 2 tcp 1040 ------- 0 1.1 2.0 21 165
+ 0.56904 2 1 ack 40 ------- 0 2.0 1.1 21 174
- 0.56904 2 1 ack 40 ------- 0 2.0 1.1 21 174
r 0.56904 2 0 tcp 1040 ------- 0 2.1 0.1 21 167
+ 0.56904 0 2 ack 40 ------- 0 0.1 2.1 21 175
- 0.56904 0 2 ack 40 ------- 0 0.1 2.1 21 175
r 0.57104 2 1 ack 40 ------- 0 2.0 1.1 20 170
+ 0.57104 1 2 tcp 1040 ------- 0 1.1 2.0 22 176
- 0.57104 1 2 tcp 1040 ------- 0 1.1 2.0 22 176
r 0.57104 0 2 ack 40 ------- 0 0.1 2.1 20 171
+ 0.57104 2 0 tcp 1040 ------- 0 2.1 0.1 22 177
- 0.57104 2 0 tcp 1040 ------- 0 2.1 0.1 22 177
r 0.5752 1 0 ack 40 ------- 0 1.0 0.0 22 172
r 0.57936 2 1 ack 40 ------- 0 2.0 1.1 21 174
+ 0.57936 1 2 tcp 1040 ------- 0 1.1 2.0 23 178
r 0.57936 0 2 ack 40 ------- 0 0.1 2.1 21 175
+ 0.57936 2 0 tcp 1040 ------- 0 2.1 0.1 23 179
- 0.57936 1 2 tcp 1040 ------- 0 1.1 2.0 23 178
- 0.57936 2 0 tcp 1040 ------- 0 2.1 0.1 23 179
r 0.5852 0 1 tcp 1040 ---A--- 0 0.0 1.0 23 173
+ 0.5852 1 0 ack 40 ------- 0 1.0 0.0 27 180
- 0.5852 1 0 ack 40 ------- 0 1.0 0.0 27 180
r 0.58936 1 2 tcp 1040 ------- 0 1.1 2.0 22 176
+ 0.58936 2 1 ack 40 ------- 0 2.0 1.1 22 181
- 0.58936 2 1 ack 40 ------- 0 2.0 1.1 22 181
r 0.58936 2 0 tcp 1040 ------- 0 2.1 0.1 22 177
+ 0.58936 0 2 ack 40 ------- 0 0.1 2.1 22 182
- 0.58936 0 2 ack 40 ------- 0 0.1 2.1 22 182
r 0.59552 1 0 ack 40 ------- 0 1.0 0.0 27 180
+ 0.59552 0 1 tcp 1040 ------- 0 0.0 1.0 28 183
- 0.59552 0 1 tcp 1040 ------- 0 0.0 1.0 28 183
+ 0.59552 0 1 tcp 1040 ------- 0 0.0 1.0 29 184
r 0.59768 1 2 tcp 1040 ------- 0 1.1 2.0 23 178
+ 0.59768 2 1 ack 40 ------- 0 2.0 1.1 23 185
- 0.59768 2 1 ack 40 ------- 0 2.0 1.1 23 185
r 0.59768 2 0 tcp 1040 ------- 0 2.1 0.1 23 179
+ 0.59768 0 2 ack 40 ------- 0 0.1 2.1 23 186
- 0.59768 0 2 ack 40 ------- 0 0.1 2.1 23 186
r 0.59968 2 1 ack 40 ------- 0 2.0 1.1 22 181
+ 0.59968 1 2 tcp 1040 ------- 0 1.1 2.0 24 187
- 0.59968 1 2 tcp 1040 ------- 0 1.1 2.0 24 187
+ 0.59968 1 2 tcp 1040 ------- 0 1.1 2.0 25 188
r 0.59968 0 2 ack 40 ------- 0 0.1 2.1 22 182
+ 0.59968 2 0 tcp 1040 ------- 0 2.1 0.1 24 189
- 0.59968 2 0 tcp 1040 ------- 0 2.1 0.1 24 189
+ 0.59968 2 0 tcp 1040 ------- 0 2.1 0.1 25 190
- 0.60384 0 1 tcp 1040 ------- 0 0.0 1.0 29 184
r 0.608 2 1 ack 40 ------- 0 2.0 1.1 23 185
+ 0.608 1 2 tcp 1040 ------- 0 1.1 2.0 26 191
r 0.608 0 2 ack 40 ------- 0 0.1 2.1 23 186
+ 0.608 2 0 tcp 1040 ------- 0 2.1 0.1 26 192
- 0.608 1 2 tcp 1040 ------- 0 1.1 2.0 25 188
- 0.608 2 0 tcp 1040 ------- 0 2.1 0.1 25 190
r 0.61384 0 1 tcp 1040 ------- 0 0.0 1.0 28 183
+ 0.61384 1 0 ack 40 ------- 0 1.0 0.0 28 193
- 0.61384 1 0 ack 40 ------- 0 1.0 0.0 28 193
- 0.61632 1 2 tcp 1040 ------- 0 1.1 2.0 26 191
- 0.61632 2 0 tcp 1040 ------- 0 2.1 0.1 26 192
r 0.618 1 2 tcp 1040 ------- 0 1.1 2.0 24 187
+ 0.618 2 1 ack 40 ------- 0 2.0 1.1 24 194
- 0.618 2 1 ack 40 ------- 0 2.0 1.1 24 194
r 0.618 2 0 tcp 1040 ------- 0 2.1 0.1 24 189
+ 0.618 0 2 ack 40 ------- 0 0.1 2.1 24 195
- 0.618 0 2 ack 40 ------- 0 0.1 2.1 24 195
r 0.62216 0 1 tcp 1040 ------- 0 0.0 1.0 29 184
+ 0.62216 1 0 ack 40 ------- 0 1.0 0.0 29 196
- 0.62216 1 0 ack 40 ------- 0 1.0 0.0 29 196
r 0.62416 1 0 ack 40 ------- 0 1.0 0.0 28 193
+ 0.62416 0 1 tcp 1040 ------- 0 0.0 1.0 30 197
- 0.62416 0 1 tcp 1040 ------- 0 0.0 1.0 30 197
r 0.62632 1 2 tcp 1040 ------- 0 1.1 2.0 25 188
+ 0.62632 2 1 ack 40 ------- 0 2.0 1.1 25 198
- 0.62632 2 1 ack 40 ------- 0 2.0 1.1 25 198
r 0.62632 2 0 tcp 1040 ------- 0 2.1 0.1 25 190
+ 0.62632 0 2 ack 40 ------- 0 0.1 2.1 25 199
- 0.62632 0 2 ack 40 ------- 0 0.1 2.1 25 199
r 0.62832 2 1 ack 40 ------- 0 2.0 1.1 24 194
+ 0.62832 1 2 tcp 1040 ------- 0 1.1 2.0 27 200
- 0.62832 1 2 tcp 1040 ------- 0 1.1 2.0 27 200
r 0.62832 0 2 ack 40 ------- 0 0.1 2.1 24 195
+ 0.62832 2 0 tcp 1040 ------- 0 2.1 0.1 27 201
- 0.62832 2 0 tcp 1040 ------- 0 2.1 0.1 27 201
r 0.63248 1 0 ack 40 ------- 0 1.0 0.0 29 196
+ 0.63248 0 1 tcp 1040 ------- 0 0.0 1.0 31 202
- 0.63248 0 1 tcp 1040 ------- 0 0.0 1.0 31 202
r 0.63464 1 2 tcp 1040 ------- 0 1.1 2.0 26 191
+ 0.63464 2 1 ack 40 ------- 0 2.0 1.1 26 203
- 0.63464 2 1 ack 40 ------- 0 2.0 1.1 26 203
r 0.63464 2 0 tcp 1040 ------- 0 2.1 0.1 26 192
+ 0.63464 0 2 ack 40 ------- 0 0.1 2.1 26 204
- 0.63464 0 2 ack 40 ------- 0 0.1 2.1 26 204
r 0.63664 2 1 ack 40 ------- 0 2.0 1.1 25 198
+ 0.63664 1 2 tcp 1040 ------- 0 1.1 2.0 28 205
+ 0.63664 1 2 tcp 1040 ------- 0 1.1 2.0 29 206
r 0.63664 0 2 ack 40 ------- 0 0.1 2.1 25 199
+ 0.63664 2 0 tcp 1040 ------- 0 2.1 0.1 28 207
+ 0.63664 2 0 tcp 1040 ------- 0 2.1 0.1 29 208
- 0.63664 1 2 tcp 1040 ------- 0 1.1 2.0 28 205
- 0.63664 2 0 tcp 1040 ------- 0 2.1 0.1 28 207
r 0.64248 0 1 tcp 1040 ------- 0 0.0 1.0 30 197
+ 0.64248 1 0 ack 40 ------- 0 1.0 0.0 30 209
- 0.64248 1 0 ack 40 ------- 0 1.0 0.0 30 209
r 0.64496 2 1 ack 40 ------- 0 2.0 1.1 26 203
+ 0.64496 1 2 tcp 1040 ------- 0 1.1 2.0 30 210
r 0.64496 0 2 ack 40 ------- 0 0.1 2.1 26 204
+ 0.64496 2 0 tcp 1040 ------- 0 2.1 0.1 30 211
- 0.64496 1 2 tcp 1040 ------- 0 1.1 2.0 29 206
- 0.64496 2 0 tcp 1040 ------- 0 2.1 0.1 29 208
r 0.64664 1 2 tcp 1040 ------- 0 1.1 2.0 27 200
+ 0.64664 2 1 ack 40 ------- 0 2.0 1.1 27 212
- 0.64664 2 1 ack 40 ------- 0 2.0 1.1 27 212
r 0.64664 2 0 tcp 1040 ------- 0 2.1 0.1 27 201
+ 0.64664 0 2 ack 40 ------- 0 0.1 2.1 27 213
- 0.64664 0 2 ack 40 ------- 0 0.1 2.1 27 213
r 0.6508 0 1 tcp 1040 ------- 0 0.0 1.0 31 202
+ 0.6508 1 0 ack 40 ------- 0 1.0 0.0 31 214
- 0.6508 1 0 ack 40 ------- 0 1.0 0.0 31 214
r 0.6528 1 0 ack 40 ------- 0 1.0 0.0 30 209
+ 0.6528 0 1 tcp 1040 ------- 0 0.0 1.0 32 215
- 0.6528 0 1 tcp 1040 ------- 0 0.0 1.0 32 215
+ 0.6528 0 1 tcp 1040 ------- 0 0.0 1.0 33 216
- 0.65328 1 2 tcp 1040 ------- 0 1.1 2.0 30 210
- 0.65328 2 0 tcp 1040 ------- 0 2.1 0.1 30 211
r 0.65496 1 2 tcp 1040 ------- 0 1.1 2.0 28 205
+ 0.65496 2 1 ack 40 ------- 0 2.0 1.1 28 217
- 0.65496 2 1 ack 40 ------- 0 2.0 1.1 28 217
r 0.65496 2 0 tcp 1040 ------- 0 2.1 0.1 28 207
+ 0.65496 0 2 ack 40 ------- 0 0.1 2.1 28 218
- 0.65496 0 2 ack 40 ------- 0 0.1 2.1 28 218
r 0.65696 2 1 ack 40 ------- 0 2.0 1.1 27 212
+ 0.65696 1 2 tcp 1040 ------- 0 1.1 2.0 31 219
r 0.65696 0 2 ack 40 ------- 0 0.1 2.1 27 213
+ 0.65696 2 0 tcp 1040 ------- 0 2.1 0.1 31 220
r 0.66112 1 0 ack 40 ------- 0 1.0 0.0 31 214
+ 0.66112 0 1 tcp 1040 ------- 0 0.0 1.0 34 221
d 0.66112 0 1 tcp 1040 ------- 0 0.0 1.0 34 221
- 0.66112 0 1 tcp 1040 ------- 0 0.0 1.0 33 216
- 0.6616 1 2 tcp 1040 ------- 0 1.1 2.0 31 219
- 0.6616 2 0 tcp 1040 ------- 0 2.1 0.1 31 220
r 0.66328 1 2 tcp 1040 ------- 0 1.1 2.0 29 206
+ 0.66328 2 1 ack 40 ------- 0 2.0 1.1 29 222
- 0.66328 2 1 ack 40 ------- 0 2.0 1.1 29 222
r 0.66328 2 0 tcp 1040 ------- 0 2.1 0.1 29 208
+ 0.66328 0 2 ack 40 ------- 0 0.1 2.1 29 223
- 0.66328 0 2 ack 40 ------- 0 0.1 2.1 29 223
r 0.66528 2 1 ack 40 ------- 0 2.0 1.1 28 217
+ 0.66528 1 2 tcp 1040 ------- 0 1.1 2.0 32 224
r 0.66528 0 2 ack 40 ------- 0 0.1 2.1 28 218
+ 0.66528 2 0 tcp 1040 ------- 0 2.1 0.1 32 225
- 0.66992 1 2 tcp 1040 ------- 0 1.1 2.0 32 224
- 0.66992 2 0 tcp 1040 ------- 0 2.1 0.1 32 225
r 0.67112 0 1 tcp 1040 ------- 0 0.0 1.0 32 215
+ 0.67112 1 0 ack 40 ------- 0 1.0 0.0 32 226