V -t * -v 1.0a5 -a 0
A -t * -n 1 -p 0 -o 0x7fffffff -c 30 -a 1
A -t * -h 1 -m 1073741823 -s 0
n -t * -a 0 -s 0 -S UP -v circle -c black -i black
n -t * -a 1 -s 1 -S UP -v circle -c black -i black
n -t * -a 2 -s 2 -S UP -v circle -c black -i black
l -t * -s 0 -d 1 -S UP -r 1000000 -D 0.01 -c black
l -t * -s 1 -d 2 -S UP -r 1000000 -D 0.01 -c black
l -t * -s 2 -d 0 -S UP -r 1000000 -D 0.01 -c black
+ -t 0.1 -s 0 -d 1 -p tcp -e 40 -c 0 -i 0 -a 0 -x {0.0 1.0 0 ------- null}
- -t 0.1 -s 0 -d 1 -p tcp -e 40 -c 0 -i 0 -a 0 -x {0.0 1.0 0 ------- null}
h -t 0.1 -s 0 -d 1 -p tcp -e 40 -c 0 -i 0 -a 0 -x {0.0 1.0 -1 ------- null}
+ -t 0.1 -s 1 -d 2 -p tcp -e 40 -c 0 -i 1 -a 0 -x {1.1 2.0 0 ------- null}
- -t 0.1 -s 1 -d 2 -p tcp -e 40 -c 0 -i 1 -a 0 -x {1.1 2.0 0 ------- null}
h -t 0.1 -s 1 -d 2 -p tcp -e 40 -c 0 -i 1 -a 0 -x {1.1 2.0 -1 ------- null}
+ -t 0.1 -s 2 -d 0 -p tcp -e 40 -c 0 -i 2 -a 0 -x {2.1 0.1 0 ------- null}
- -t 0.1 -s 2 -d 0 -p tcp -e 40 -c 0 -i 2 -a 0 -x {2.1 0.1 0 ------- null}
h -t 0.1 -s 2 -d 0 -p tcp -e 40 -c 0 -i 2 -a 0 -x {2.1 0.1 -1 ------- null}
r -t 0.11032 -s 0 -d 1 -p tcp -e 40 -c 0 -i 0 -a 0 -x {0.0 1.0 0 ------- null}
+ -t 0.11032 -s 1 -d 0 -p ack -e 40 -c 0 -i 3 -a 0 -x {1.0 0.0 0 ------- null}
- -t 0.11032 -s 1 -d 0 -p ack -e 40 -c 0 -i 3 -a 0 -x {1.0 0.0 0 ------- null}
h -t 0.11032 -s 1 -d 0 -p ack -e 40 -c 0 -i 3 -a 0 -x {1.0 0.0 -1 ------- null}
r -t 0.11032 -s 1 -d 2 -p tcp -e 40 -c 0 -i 1 -a 0 -x {1.1 2.0 0 ------- null}
+ -t 0.11032 -s 2 -d 1 -p ack -e 40 -c 0 -i 4 -a 0 -x {2.0 1.1 0 ------- null}
- -t 0.11032 -s 2 -d 1 -p ack -e 40 -c 0 -i 4 -a 0 -x {2.0 1.1 0 ------- null}
h -t 0.11032 -s 2 -d 1 -p ack -e 40 -c 0 -i 4 -a 0 -x {2.0 1.1 -1 ------- null}
r -t 0.11032 -s 2 -d 0 -p tcp -e 40 -c 0 -i 2 -a 0 -x {2.1 0.1 0 ------- null}
+ -t 0.11032 -s 0 -d 2 -p ack -e 40 -c 0 -i 5 -a 0 -x {0.1 2.1 0 ------- null}
- -t 0.11032 -s 0 -d 2 -p ack -e 40 -c 0 -i 5 -a 0 -x {0.1 2.1 0 ------- null}
h -t 0.11032 -s 0 -d 2 -p ack -e 40 -c 0 -i 5 -a 0 -x {0.1 2.1 -1 ------- null}
r -t 0.12064 -s 1 -d 0 -p ack -e 40 -c 0 -i 3 -a 0 -x {1.0 0.0 0 ------- null}
+ -t 0.12064 -s 0 -d 1 -p tcp -e 1040 -c 0 -i 6 -a 0 -x {0.0 1.0 1 ------- null}
- -t 0.12064 -s 0 -d 1 -p tcp -e 1040 -c 0 -i 6 -a 0 -x {0.0 1.0 1 ------- null}
h -t 0.12064 -s 0 -d 1 -p tcp -e 1040 -c 0 -i 6 -a 0 -x {0.0 1.0 -1 ------- null}
+ -t 0.12064 -s 0 -d 1 -p tcp -e 1040 -c 0 -i 7 -a 0 -x {0.0 1.0 2 ------- null}
r -t 0.12064 -s 2 -d 1 -p ack -e 40 -c 0 -i 4 -a 0 -x {2.0 1.1 0 ------- null}
+ -t 0.12064 -s 1 -d 2 -p tcp -e 1040 -c 0 -i 8 -a 0 -x {1.1 2.0 1 ------- null}
- -t 0.12064 -s 1 -d 2 -p tcp -e 1040 -c 0 -i 8 -a 0 -x {1.1 2.0 1 ------- null}
h -t 0.12064 -s 1 -d 2 -p tcp -e 1040 -c 0 -i 8 -a 0 -x {1.1 2.0 -1 ------- null}
+ -t 0.12064 -s 1 -d 2 -p tcp -e 1040 -c 0 -i 9 -a 0 -x {1.1 2.0 2 ------- null}
r -t 0.12064 -s 0 -d 2 -p ack -e 40 -c 0 -i 5 -a 0 -x {0.1 2.1 0 ------- null}
+ -t 0.12064 -s 2 -d 0 -p tcp -e 1040 -c 0 -i 10 -a 0 -x {2.1 0.1 1 ------- null}
- -t 0.12064 -s 2 -d 0 -p tcp -e 1040 -c 0 -i 10 -a 0 -x {2.1 0.1 1 ------- null}
h -t 0.12064 -s 2 -d 0 -p tcp -e 1040 -c 0 -i 10 -a 0 -x {2.1 0.1 -1 ------- null}
+ -t 0.12064 -s 2 -d 0 -p tcp -e 1040 -c 0 -i 11 -a 0 -x {2.1 0.1 2 ------- null}
- -t 0.12896 -s 0 -d 1 -p tcp -e 1040 -c 0 -i 7 -a 0 -x {0.0 1.0 2 ------- null}
h -t 0.12896 -s 0 -d 1 -p tcp -e 1040 -c 0 -i 7 -a 0 -x {0.0 1.0 -1 ------- null}
- -t 0.12896 -s 1 -d 2 -p tcp -e 1040 -c 0 -i 9 -a 0 -x {1.1 2.0 2 ------- null}
h -t 0.12896 -s 1 -d 2 -p tcp -e 1040 -c 0 -i 9 -a 0 -x {1.1 2.0 -1 ------- null}
- -t 0.12896 -s 2 -d 0 -p tcp -e 1040 -c 0 -i 11 -a 0 -x {2.1 0.1 2 ------- null}
h -t 0.12896 -s 2 -d 0 -p tcp -e 1040 -c 0 -i 11 -a 0 -x {2.1 0.1 -1 ------- null}
r -t 0.13896 -s 0 -d 1 -p tcp -e 1040 -c 0 -i 6 -a 0 -x {0.0 1.0 1 ------- null}
+ -t 0.13896 -s 1 -d 0 -p ack -e 40 -c 0 -i 12 -a 0 -x {1.0 0.0 1 ------- null}
- -t 0.13896 -s 1 -d 0 -p ack -e 40 -c 0 -i 12 -a 0 -x {1.0 0.0 1 ------- null}
h -t 0.13896 -s 1 -d 0 -p ack -e 40 -c 0 -i 12 -a 0 -x {1.0 0.0 -1 ------- null}
r -t 0.13896 -s 1 -d 2 -p tcp -e 1040 -c 0 -i 8 -a 0 -x {1.1 2.0 1 ------- null}
+ -t 0.13896 -s 2 -d 1 -p ack -e 40 -c 0 -i 13 -a 0 -x {2.0 1.1 1 ------- null}
- -t 0.13896 -s 2 -d 1 -p ack -e 40 -c 0 -i 13 -a 0 -x {2.0 1.1 1 ------- null}
h -t 0.13896 -s 2 -d 1 -p ack -e 40 -c 0 -i 13 -a 0 -x {2.0 1.1 -1 ------- null}
r -t 0.13896 -s 2 -d 0 -p tcp -e 1040 -c 0 -i 10 -a 0 -x {2.1 0.1 1 ------- null}
+ -t 0.13896 -s 0 -d 2 -p ack -e 40 -c 0 -i 14 -a 0 -x {0.1 2.1 1 ------- null}
- -t 0.13896 -s 0 -d 2 -p ack -e 40 -c 0 -i 14 -a 0 -x {0.1 2.1 1 ------- null}
h -t 0.13896 -s 0 -d 2 -p ack -e 40 -c 0 -i 14 -a 0 -x {0.1 2.1 -1 ------- null}
r -t 0.14728 -s 0 -d 1 -p tcp -e 1040 -c 0 -i 7 -a 0 -x {0.0 1.0 2 ------- null}
+ -t 0.14728 -s 1 -d 0 -p ack -e 40 -c 0 -i 15 -a 0 -x {1.0 0.0 2 ------- null}
- -t 0.14728 -s 1 -d 0 -p ack -e 40 -c 0 -i 15 -a 0 -x {1.0 0.0 2 ------- null}
h -t 0.14728 -s 1 -d 0 -p ack -e 40 -c 0 -i 15 -a 0 -x {1.0 0.0 -1 ------- null}
r -t 0.14728 -s 1 -d 2 -p tcp -e 1040 -c 0 -i 9 -a 0 -x {1.1 2.0 2 ------- null}
+ -t 0.14728 -s 2 -d 1 -p ack -e 40 -c 0 -i 16 -a 0 -x {2.0 1.1 2 ------- null}
- -t 0.14728 -s 2 -d 1 -p ack -e 40 -c 0 -i 16 -a 0 -x {2.0 1.1 2 ------- null}
h -t 0.14728 -s 2 -d 1 -p ack -e 40 -c 0 -i 16 -a 0 -x {2.0 1.1 -1 ------- null}
r -t 0.14728 -s 2 -d 0 -p tcp -e 1040 -c 0 -i 11 -a 0 -x {2.1 0.1 2 ------- null}
+ -t 0.14728 -s 0 -d 2 -p ack -e 40 -c 0 -i 17 -a 0 -x {0.1 2.1 2 ------- null}
- -t 0.14728 -s 0 -d 2 -p ack -e 40 -c 0 -i 17 -a 0 -x {0.1 2.1 2 ------- null}
h -t 0.14728 -s 0 -d 2 -p ack -e 40 -c 0 -i 17 -a 0 -x {0.1 2.1 -1 ------- null}
r -t 0.14928 -s 1 -d 0 -p ack -e 40 -c 0 -i 12 -a 0 -x {1.0 0.0 1 ------- null}
+ -t 0.14928 -s 0 -d 1 -p tcp -e 1040 -c 0 -i 18 -a 0 -x {0.0 1.0 3 ------- null}
- -t 0.14928 -s 0 -d 1 -p tcp -e 1040 -c 0 -i 18 -a 0 -x {0.0 1.0 3 ------- null}
h -t 0.14928 -s 0 -d 1 -p tcp -e 1040 -c 0 -i 18 -a 0 -x {0.0 1.0 -1 ------- null}
+ -t 0.14928 -s 0 -d 1 -p tcp -e 1040 -c 0 -i 19 -a 0 -x {0.0 1.0 4 ------- null}
r -t 0.14928 -s 2 -d 1 -p ack -e 40 -c 0 -i 13 -a 0 -x {2.0 1.1 1 ------- null}
+ -t 0.14928 -s 1 -d 2 -p tcp -e 1040 -c 0 -i 20 -a 0 -x {1.1 2.0 3 ------- null}
- -t 0.14928 -s 1 -d 2 -p tcp -e 1040 -c 0 -i 20 -a 0 -x {1.1 2.0 3 ------- null}
h -t 0.14928 -s 1 -d 2 -p tcp -e 1040 -c 0 -i 20 -a 0 -x {1.1 2.0 -1 ------- null}
+ -t 0.14928 -s 1 -d 2 -p tcp -e 1040 -c 0 -i 21 -a 0 -x {1.1 2.0 4 ------- null}
r -t 0.14928 -s 0 -d 2 -p ack -e 40 -c 0 -i 14 -a 0 -x {0.1 2.1 1 ------- null}
+ -t 0.14928 -s 2 -d 0 -p tcp -e 1040 -c 0 -i 22 -a 0 -x {2.1 0.1 3 ------- null}
- -t 0.14928 -s 2 -d 0 -p tcp -e 1040 -c 0 -i 22 -a 0 -x {2.1 0.1 3 ------- null}
h -t 0.14928 -s 2 -d 0 -p tcp -e 1040 -c 0 -i 22 -a 0 -x {2.1 0.1 -1 ------- null}
+ -t 0.14928 -s 2 -d 0 -p tcp -e 1040 -c 0 -i 23 -a 0 -x {2.1 0.1 4 ------- null}
r -t 0.1576 -s 1 -d 0 -p ack -e 40 -c 0 -i 15 -a 0 -x {1.0 0.0 2 ------- null}
+ -t 0.1576 -s 0 -d 1 -p tcp -e 1040 -c 0 -i 24 -a 0 -x {0.0 1.0 5 ------- null}
d -t 0.1576 -s 0 -d 1 -p tcp -e 1040 -c 0 -i 24 -a 0 -x {0.0 1.0 5 ------- null}
+ -t 0.1576 -s 0 -d 1 -p tcp -e 1040 -c 0 -i 25 -a 0 -x {0.0 1.0 6 ------- null}
d -t 0.1576 -s 0 -d 1 -p tcp -e 1040 -c 0 -i 25 -a 0 -x {0.0 1.0 6 ------- null}
r -t 0.1576 -s 2 -d 1 -p ack -e 40 -c 0 -i 16 -a 0 -x {2.0 1.1 2 ------- null}
+ -t 0.1576 -s 1 -d 2 -p tcp -e 1040 -c 0 -i 26 -a 0 -x {1.1 2.0 5 ------- null}
+ -t 0.1576 -s 1 -d 2 -p tcp -e 1040 -c 0 -i 27 -a 0 -x {1.1 2.0 6 ------- null}
d -t 0.1576 -s 1 -d 2 -p tcp -e 1040 -c 0 -i 27 -a 0 -x {1.1 2.0 6 ------- null}
r -t 0.1576 -s 0 -d 2 -p ack -e 40 -c 0 -i 17 -a 0 -x {0.1 2.1 2 ------- null}
+ -t 0.1576 -s 2 -d 0 -p tcp -e 1040 -c 0 -i 28 -a 0 -x {2.1 0.1 5 ------- null}
+ -t 0.1576 -s 2 -d 0 -p tcp -e 1040 -c 0 -i 29 -a 0 -x {2.1 0.1 6 ------- null}
d -t 0.1576 -s 2 -d 0 -p tcp -e 1040 -c 0 -i 29 -a 0 -x {2.1 0.1 6 ------- null}
- -t 0.1576 -s 0 -d 1 -p tcp -e 1040 -c 0 -i 19 -a 0 -x {0.0 1.0 4 ------- null}
h -t 0.1576 -s 0 -d 1 -p tcp -e 1040 -c 0 -i 19 -a 0 -x {0.0 1.0 -1 ------- null}
- -t 0.1576 -s 1 -d 2 -p tcp -e 1040 -c 0 -i 21 -a 0 -x {1.1 2.0 4 ------- null}
h -t 0.1576 -s 1 -d 2 -p tcp -e 1040 -c 0 -i 21 -a 0 -x {1.1 2.0 -1 ------- null}
- -t 0.1576 -s 2 -d 0 -p tcp -e 1040 -c 0 -i 23 -a 0 -x {2.1 0.1 4 ------- null}
h -t 0.1576 -s 2 -d 0 -p tcp -e 1040 -c 0 -i 23 -a 0 -x {2.1 0.1 -1 ------- null}
- -t 0.16592 -s 1 -d 2 -p tcp -e 1040 -c 0 -i 26 -a 0 -x {1.1 2.0 5 ------- null}
h -t 0.16592 -s 1 -d 2 -p tcp -e 1040 -c 0 -i 26 -a 0 -x {1.1 2.0 -1 ------- null}
- -t 0.16592 -s 2 -d 0 -p tcp -e 1040 -c 0 -i 28 -a 0 -x {2.1 0.1 5 ------- null}
h -t 0.16592 -s 2 -d 0 -p tcp -e 1040 -c 0 -i 28 -a 0 -x {2.1 0.1 -1 ------- null}
r -t 0.1676 -s 0 -d 1 -p tcp -e 1040 -c 0 -i 18 -a 0 -x {0.0 1.0 3 ------- null}
+ -t 0.1676 -s 1 -d 0 -p ack -e 40 -c 0 -i 30 -a 0 -x {1.0 0.0 3 ------- null}
- -t 0.1676 -s 1 -d 0 -p ack -e 40 -c 0 -i 30 -a 0 -x {1.0 0.0 3 ------- null}
h -t 0.1676 -s 1 -d 0 -p ack -e 40 -c 0 -i 30 -a 0 -x {1.0 0.0 -1 ------- null}
r -t 0.1676 -s 1 -d 2 -p tcp -e 1040 -c 0 -i 20 -a 0 -x {1.1 2.0 3 ------- null}
+ -t 0.1676 -s 2 -d 1 -p ack -e 40 -c 0 -i 31 -a 0 -x {2.0 1.1 3 ------- null}
- -t 0.1676 -s 2 -d 1 -p ack -e 40 -c 0 -i 31 -a 0 -x {2.0 1.1 3 ------- null}
h -t 0.1676 -s 2 -d 1 -p ack -e 40 -c 0 -i 31 -a 0 -x {2.0 1.1 -1 ------- null}
r -t 0.1676 -s 2 -d 0 -p tcp -e 1040 -c 0 -i 22 -a 0 -x {2.1 0.1 3 ------- null}
+ -t 0.1676 -s 0 -d 2 -p ack -e 40 -c 0 -i 32 -a 0 -x {0.1 2.1 3 ------- null}
- -t 0.1676 -s 0 -d 2 -p ack -e 40 -c 0 -i 32 -a 0 -x {0.1 2.1 3 ------- null}
h -t 0.1676 -s 0 -d 2 -p ack -e 40 -c 0 -i 32 -a 0 -x {0.1 2.1 -1 ------- null}
r -t 0.17592 -s 0 -d 1 -p tcp -e 1040 -c 0 -i 19 -a 0 -x {0.0 1.0 4 ------- null}
+ -t 0.17592 -s 1 -d 0 -p ack -e 40 -c 0 -i 33 -a 0 -x {1.0 0.0 4 ------- null}
- -t 0.17592 -s 1 -d 0 -p ack -e 40 -c 0 -i 33 -a 0 -x {1.0 0.0 4 ------- null}
h -t 0.17592 -s 1 -d 0 -p ack -e 40 -c 0 -i 33 -a 0 -x {1.0 0.0 -1 ------- null}
r -t 0.17592 -s 1 -d 2 -p tcp -e 1040 -c 0 -i 21 -a 0 -x {1.1 2.0 4 ------- null}
+ -t 0.17592 -s 2 -d 1 -p ack -e 40 -c 0 -i 34 -a 0 -x {2.0 1.1 4 ------- null}
- -t 0.17592 -s 2 -d 1 -p ack -e 40 -c 0 -i 34 -a 0 -x {2.0 1.1 4 ------- null}
h -t 0.17592 -s 2 -d 1 -p ack -e 40 -c 0 -i 34 -a 0 -x {2.0 1.1 -1 ------- null}
r -t 0.17592 -s 2 -d 0 -p tcp -e 1040 -c 0 -i 23 -a 0 -x {2.1 0.1 4 ------- null}
+ -t 0.17592 -s 0 -d 2 -p ack -e 40 -c 0 -i 35 -a 0 -x {0.1 2.1 4 ------- null}
- -t 0.17592 -s 0 -d 2 -p ack -e 40 -c 0 -i 35 -a 0 -x {0.1 2.1 4 ------- null}
h -t 0.17592 -s 0 -d 2 -p ack -e 40 -c 0 -i 35 -a 0 -x {0.1 2.1 -1 ------- null}
r -t 0.17792 -s 1 -d 0 -p ack -e 40 -c 0 -i 30 -a 0 -x {1.0 0.0 3 ------- null}
+ -t 0.17792 -s 0 -d 1 -p tcp -e 1040 -c 0 -i 36 -a 0 -x {0.0 1.0 7 ------- null}
- -t 0.17792 -s 0 -d 1 -p tcp -e 1040 -c 0 -i 36 -a 0 -x {0.0 1.0 7 ------- null}
h -t 0.17792 -s 0 -d 1 -p tcp -e 1040 -c 0 -i 36 -a 0 -x {0.0 1.0 -1 ------- null}
+ -t 0.17792 -s 0 -d 1 -p tcp -e 1040 -c 0 -i 37 -a 0 -x {0.0 1.0 8 ------- null}
r -t 0.17792 -s 2 -d 1 -p ack -e 40 -c 0 -i 31 -a 0 -x {2.0 1.1 3 ------- null}
+ -t 0.17792 -s 1 -d 2 -p tcp -e 1040 -c 0 -i 38 -a 0 -x {1.1 2.0 7 ------- null}
- -t 0.17792 -s 1 -d 2 -p tcp -e 1040 -c 0 -i 38 -a 0 -x {1.1 2.0 7 ------- null}
h -t 0.17792 -s 1 -d 2 -p tcp -e 1040 -c 0 -i 38 -a 0 -x {1.1 2.0 -1 ------- null}
+ -t 0.17792 -s 1 -d 2 -p tcp -e 1040 -c 0 -i 39 -a 0 -x {1.1 2.0 8 ------- null}
r -t 0.17792 -s 0 -d 2 -p ack -e 40 -c 0 -i 32 -a 0 -x {0.1 2.1 3 ------- null}
+ -t 0.17792 -s 2 -d 0 -p tcp -e 1040 -c 0 -i 40 -a 0 -x {2.1 0.1 7 ------- null}
- -t 0.17792 -s 2 -d 0 -p tcp -e 1040 -c 0 -i 40 -a 0 -x {2.1 0.1 7 ------- null}
h -t 0.17792 -s 2 -d 0 -p tcp -e 1040 -c 0 -i 40 -a 0 -x {2.1 0.1 -1 ------- null}
+ -t 0.17792 -s 2 -d 0 -p tcp -e 1040 -c 0 -i 41 -a 0 -x {2.1 0.1 8 ------- null}
r -t 0.18424 -s 1 -d 2 -p tcp -e 1040 -c 0 -i 26 -a 0 -x {1.1 2.0 5 ------- null}
+ -t 0.18424 -s 2 -d 1 -p ack -e 40 -c 0 -i 42 -a 0 -x {2.0 1.1 5 ------- null}
- -t 0.18424 -s 2 -d 1 -p ack -e 40 -c 0 -i 42 -a 0 -x {2.0 1.1 5 ------- null}
h -t 0.18424 -s 2 -d 1 -p ack -e 40 -c 0 -i 42 -a 0 -x {2.0 1.1 -1 ------- null}
r -t 0.18424 -s 2 -d 0 -p tcp -e 1040 -c 0 -i 28 -a 0 -x {2.1 0.1 5 ------- null}
+ -t 0.18424 -s 0 -d 2 -p ack -e 40 -c 0 -i 43 -a 0 -x {0.1 2.1 5 ------- null}
- -t 0.18424 -s 0 -d 2 -p ack -e 40 -c 0 -i 43 -a 0 -x {0.1 2.1 5 ------- null}
h -t 0.18424 -s 0 -d 2 -p ack -e 40 -c 0 -i 43 -a 0 -x {0.1 2.1 -1 ------- null}
r -t 0.18624 -s 1 -d 0 -p ack -e 40 -c 0 -i 33 -a 0 -x {1.0 0.0 4 ------- null}
+ -t 0.18624 -s 0 -d 1 -p tcp -e 1040 -c 0 -i 44 -a 0 -x {0.0 1.0 9 ------- null}
d -t 0.18624 -s 0 -d 1 -p tcp -e 1040 -c 0 -i 44 -a 0 -x {0.0 1.0 9 ------- null}
+ -t 0.18624 -s 0 -d 1 -p tcp -e 1040 -c 0 -i 45 -a 0 -x {0.0 1.0 10 ------- null}
d -t 0.18624 -s 0 -d 1 -p tcp -e 1040 -c 0 -i 45 -a 0 -x {0.0 1.0 10 ------- null}
r -t 0.18624 -s 2 -d 1 -p ack -e 40 -c 0 -i 34 -a 0 -x {2.0 1.1 4 ------- null}
+ -t 0.18624 -s 1 -d 2 -p tcp -e 1040 -c 0 -i 46 -a 0 -x {1.1 2.0 9 ------- null}
+ -t 0.18624 -s 1 -d 2 -p tcp -e 1040 -c 0 -i 47 -a 0 -x {1.1 2.0 10 ------- null}
d -t 0.18624 -s 1 -d 2 -p tcp -e 1040 -c 0 -i 47 -a 0 -x {1.1 2.0 10 ------- null}
r -t 0.18624 -s 0 -d 2 -p ack -e 40 -c 0 -i 35 -a 0 -x {0.1 2.1 4 ------- null}
+ -t 0.18624 -s 2 -d 0 -p tcp -e 1040 -c 0 -i 48 -a 0 -x {2.1 0.1 9 ------- null}
+ -t 0.18624 -s 2 -d 0 -p tcp -e 1040 -c 0 -i 49 -a 0 -x {2.1 0.1 10 ------- null}
d -t 0.18624 -s 2 -d 0 -p tcp -e 1040 -c 0 -i 49 -a 0 -x {2.1 0.1 10 ------- null}
- -t 0.18624 -s 0 -d 1 -p tcp -e 1040 -c 0 -i 37 -a 0 -x {0.0 1.0 8 ------- null}
h -t 0.18624 -s 0 -d 1 -p tcp -e 1040 -c 0 -i 37 -a 0 -x {0.0 1.0 -1 ------- null}
- -t 0.18624 -s 1 -d 2 -p tcp -e 1040 -c 0 -i 39 -a 0 -x {1.1 2.0 8 ------- null}
h -t 0.18624 -s 1 -d 2 -p tcp -e 1040 -c 0 -i 39 -a 0 -x {1.1 2.0 -1 ------- null}
- -t 0.18624 -s 2 -d 0 -p tcp -e 1040 -c 0 -i 41 -a 0 -x {2.1 0.1 8 ------- null}
h -t 0.18624 -s 2 -d 0 -p tcp -e 1040 -c 0 -i 41 -a 0 -x {2.1 0.1 -1 ------- null}
r -t 0.19456 -s 2 -d 1 -p ack -e 40 -c 0 -i 42 -a 0 -x {2.0 1.1 5 ------- null}
+ -t 0.19456 -s 1 -d 2 -p tcp -e 1040 -c 0 -i 50 -a 0 -x {1.1 2.0 11 ------- null}
+ -t 0.19456 -s 1 -d 2 -p tcp -e 1040 -c 0 -i 51 -a 0 -x {1.1 2.0 12 ------- null}
d -t 0.19456 -s 1 -d 2 -p tcp -e 1040 -c 0 -i 51 -a 0 -x {1.1 2.0 12 ------- null}
r -t 0.19456 -s 0 -d 2 -p ack -e 40 -c 0 -i 43 -a 0 -x {0.1 2.1 5 ------- null}
+ -t 0.19456 -s 2 -d 0 -p tcp -e 1040 -c 0 -i 52 -a 0 -x {2.1 0.1 11 ------- null}
+ -t 0.19456 -s 2 -d 0 -p tcp -e 1040 -c 0 -i 53 -a 0 -x {2.1 0.1 12 ------- null}
d -t 0.19456 -s 2 -d 0 -p tcp -e 1040 -c 0 -i 53 -a 0 -x {2.1 0.1 12 ------- null}
- -t 0.19456 -s 1 -d 2 -p tcp -e 1040 -c 0 -i 46 -a 0 -x {1.1 2.0 9 ------- null}
h -t 0.19456 -s 1 -d 2 -p tcp -e 1040 -c 0 -i 46 -a 0 -x {1.1 2.0 -1 ------- null}
- -t 0.19456 -s 2 -d 0 -p tcp -e 1040 -c 0 -i 48 -a 0 -x {2.1 0.1 9 ------- null}
h -t 0.19456 -s 2 -d 0 -p tcp -e 1040 -c 0 -i 48 -a 0 -x {2.1 0.1 -1 ------- null}
r -t 0.19624 -s 0 -d 1 -p tcp -e 1040 -c 0 -i 36 -a 0 -x {0.0 1.0 7 ------- null}
+ -t 0.19624 -s 1 -d 0 -p ack -e 40 -c 0 -i 54 -a 0 -x {1.0 0.0 4 ------- null}
- -t 0.19624 -s 1 -d 0 -p ack -e 40 -c 0 -i 54 -a 0 -x {1.0 0.0 4 ------- null}
h -t 0.19624 -s 1 -d 0 -p ack -e 40 -c 0 -i 54 -a 0 -x {1.0 0.0 -1 ------- null}
r -t 0.19624 -s 1 -d 2 -p tcp -e 1040 -c 0 -i 38 -a 0 -x {1.1 2.0 7 ------- null}
+ -t 0.19624 -s 2 -d 1 -p ack -e 40 -c 0 -i 55 -a 0 -x {2.0 1.1 5 ------- null}
- -t 0.19624 -s 2 -d 1 -p ack -e 40 -c 0 -i 55 -a 0 -x {2.0 1.1 5 ------- null}
h -t 0.19624 -s 2 -d 1 -p ack -e 40 -c 0 -i 55 -a 0 -x {2.0 1.1 -1 ------- null}
r -t 0.19624 -s 2 -d 0 -p tcp -e 1040 -c 0 -i 40 -a 0 -x {2.1 0.1 7 ------- null}
+ -t 0.19624 -s 0 -d 2 -p ack -e 40 -c 0 -i 56 -a 0 -x {0.1 2.1 5 ------- null}
- -t 0.19624 -s 0 -d 2 -p ack -e 40 -c 0 -i 56 -a 0 -x {0.1 2.1 5 ------- null}
h -t 0.19624 -s 0 -d 2 -p ack -e 40 -c 0 -i 56 -a 0 -x {0.1 2.1 -1 ------- null}
- -t 0.20288 -s 1 -d 2 -p tcp -e 1040 -c 0 -i 50 -a 0 -x {1.1 2.0 11 ------- null}
h -t 0.20288 -s 1 -d 2 -p tcp -e 1040 -c 0 -i 50 -a 0 -x {1.1 2.0 -1 ------- null}
- -t 0.20288 -s 2 -d 0 -p tcp -e 1040 -c 0 -i 52 -a 0 -x {2.1 0.1 11 ------- null}
h -t 0.20288 -s 2 -d 0 -p tcp -e 1040 -c 0 -i 52 -a 0 -x {2.1 0.1 -1 ------- null}
r -t 0.20456 -s 0 -d 1 -p tcp -e 1040 -c 0 -i 37 -a 0 -x {0.0 1.0 8 ------- null}
+ -t 0.20456 -s 1 -d 0 -p ack -e 40 -c 0 -i 57 -a 0 -x {1.0 0.0 4 ------- null}
- -t 0.20456 -s 1 -d 0 -p ack -e 40 -c 0 -i 57 -a 0 -x {1.0 0.0 4 ------- null}
h -t 0.20456 -s 1 -d 0 -p ack -e 40 -c 0 -i 57 -a 0 -x {1.0 0.0 -1 ------- null}
r -t 0.20456 -s 1 -d 2 -p tcp -e 1040 -c 0 -i 39 -a 0 -x {1.1 2.0 8 ------- null}
+ -t 0.20456 -s 2 -d 1 -p ack -e 40 -c 0 -i 58 -a 0 -x {2.0 1.1 5 ------- null}
- -t 0.20456 -s 2 -d 1 -p ack -e 40 -c 0 -i 58 -a 0 -x {2.0 1.1 5 ------- null}
h -t 0.20456 -s 2 -d 1 -p ack -e 40 -c 0 -i 58 -a 0 -x {2.0 1.1 -1 ------- null}
r -t 0.20456 -s 2 -d 0 -p tcp -e 1040 -c 0 -i 41 -a 0 -x {2.1 0.1 8 ------- null}
+ -t 0.20456 -s 0 -d 2 -p ack -e 40 -c 0 -i 59 -a 0 -x {0.1 2.1 5 ------- null}
- -t 0.20456 -s 0 -d 2 -p ack -e 40 -c 0 -i 59 -a 0 -x {0.1 2.1 5 ------- null}
h -t 0.20456 -s 0 -d 2 -p ack -e 40 -c 0 -i 59 -a 0 -x {0.1 2.1 -1 ------- null}
r -t 0.20656 -s 1 -d 0 -p ack -e 40 -c 0 -i 54 -a 0 -x {1.0 0.0 4 ------- null}
+ -t 0.20656 -s 0 -d 1 -p tcp -e 1040 -c 0 -i 60 -a 0 -x {0.0 1.0 11 ------- null}
- -t 0.20656 -s 0 -d 1 -p tcp -e 1040 -c 0 -i 60 -a 0 -x {0.0 1.0 11 ------- null}
h -t 0.20656 -s 0 -d 1 -p tcp -e 1040 -c 0 -i 60 -a 0 -x {0.0 1.0 -1 ------- null}
r -t 0.20656 -s 2 -d 1 -p ack -e 40 -c 0 -i 55 -a 0 -x {2.0 1.1 5 ------- null}
+ -t 0.20656 -s 1 -d 2 -p tcp -e 1040 -c 0 -i 61 -a 0 -x {1.1 2.0 13 ------- null}
r -t 0.20656 -s 0 -d 2 -p ack -e 40 -c 0 -i 56 -a 0 -x {0.1 2.1 5 ------- null}
+ -t 0.20656 -s 2 -d 0 -p tcp -e 1040 -c 0 -i 62 -a 0 -x {2.1 0.1 13 ------- null}
- -t 0.2112 -s 1 -d 2 -p tcp -e 1040 -c 0 -i 61 -a 0 -x {1.1 2.0 13 ------- null}
h -t 0.2112 -s 1 -d 2 -p tcp -e 1040 -c 0 -i 61 -a 0 -x {1.1 2.0 -1 ------- null}
- -t 0.2112 -s 2 -d 0 -p tcp -e 1040 -c 0 -i 62 -a 0 -x {2.1 0.1 13 ------- null}
h -t 0.2112 -s 2 -d 0 -p tcp -e 1040 -c 0 -i 62 -a 0 -x {2.1 0.1 -1 ------- null}
r -t 0.21288 -s 1 -d 2 -p tcp -e 1040 -c 0 -i 46 -a 0 -x {1.1 2.0 9 ------- null}
+ -t 0.21288 -s 2 -d 1 -p ack -e 40 -c 0 -i 63 -a 0 -x {2.0 1.1 5 ------- null}
- -t 0.21288 -s 2 -d 1 -p ack -e 40 -c 0 -i 63 -a 0 -x {2.0 1.1 5 ------- null}
h -t 0.21288 -s 2 -d 1 -p ack -e 40 -c 0 -i 63 -a 0 -x {2.0 1.1 -1 ------- null}
r -t 0.21288 -s 2 -d 0 -p tcp -e 1040 -c 0 -i 48 -a 0 -x {2.1 0.1 9 ------- null}
+ -t 0.21288 -s 0 -d 2 -p ack -e 40 -c 0 -i 64 -a 0 -x {0.1 2.1 5 ------- null}
- -t 0.21288 -s 0 -d 2 -p ack -e 40 -c 0 -i 64 -a 0 -x {0.1 2.1 5 ------- null}
h -t 0.21288 -s 0 -d 2 -p ack -e 40 -c 0 -i 64 -a 0 -x {0.1 2.1 -1 ------- null}
r -t 0.21488 -s 1 -d 0 -p ack -e 40 -c 0 -i 57 -a 0 -x {1.0 0.0 4 ------- null}
+ -t 0.21488 -s 0 -d 1 -p tcp -e 1040 -c 0 -i 65 -a 0 -x {0.0 1.0 12 ------- null}
r -t 0.21488 -s 2 -d 1 -p ack -e 40 -c 0 -i 58 -a 0 -x {2.0 1.1 5 ------- null}
+ -t 0.21488 -s 1 -d 2 -p tcp -e 1040 -c 0 -i 66 -a 0 -x {1.1 2.0 14 ------- null}
r -t 0.21488 -s 0 -d 2 -p ack -e 40 -c 0 -i 59 -a 0 -x {0.1 2.1 5 ------- null}
+ -t 0.21488 -s 2 -d 0 -p tcp -e 1040 -c 0 -i 67 -a 0 -x {2.1 0.1 14 ------- null}
- -t 0.21488 -s 0 -d 1 -p tcp -e 1040 -c 0 -i 65 -a 0 -x {0.0 1.0 12 ------- null}
h -t 0.21488 -s 0 -d 1 -p tcp -e 1040 -c 0 -i 65 -a 0 -x {0.0 1.0 -1 ------- null}
- -t 0.21952 -s 1 -d 2 -p tcp -e 1040 -c 0 -i 66 -a 0 -x {1.1 2.0 14 ------- null}
h -t 0.21952 -s 1 -d 2 -p tcp -e 1040 -c 0 -i 66 -a 0 -x {1.1 2.0 -1 ------- null}
- -t 0.21952 -s 2 -d 0 -p tcp -e 1040 -c 0 -i 67 -a 0 -x {2.1 0.1 14 ------- null}
h -t 0.21952 -s 2 -d 0 -p tcp -e 1040 -c 0 -i 67 -a 0 -x {2.1 0.1 -1 ------- null}
r -t 0.2212 -s 1 -d 2 -p tcp -e 1040 -c 0 -i 50 -a 0 -x {1.1 2.0 11 ------- null}
+ -t 0.2212 -s 2 -d 1 -p ack -e 40 -c 0 -i 68 -a 0 -x {2.0 1.1 5 ------- null}
- -t 0.2212 -s 2 -d 1 -p ack -e 40 -c 0 -i 68 -a 0 -x {2.0 1.1 5 ------- null}
h -t 0.2212 -s 2 -d 1 -p ack -e 40 -c 0 -i 68 -a 0 -x {2.0 1.1 -1 ------- null}
r -t 0.2212 -s 2 -d 0 -p tcp -e 1040 -c 0 -i 52 -a 0 -x {2.1 0.1 11 ------- null}
+ -t 0.2212 -s 0 -d 2 -p ack -e 40 -c 0 -i 69 -a 0 -x {0.1 2.1 5 ------- null}
- -t 0.2212 -s 0 -d 2 -p ack -e 40 -c 0 -i 69 -a 0 -x {0.1 2.1 5 ------- null}
h -t 0.2212 -s 0 -d 2 -p ack -e 40 -c 0 -i 69 -a 0 -x {0.1 2.1 -1 ------- null}
r -t 0.2232 -s 2 -d 1 -p ack -e 40 -c 0 -i 63 -a 0 -x {2.0 1.1 5 ------- null}
+ -t 0.2232 -s 1 -d 2 -p tcp -e 1040 -c 0 -i 70 -a 0 -x {1.1 2.0 6 ---A--- null}
r -t 0.2232 -s 0 -d 2 -p ack -e 40 -c 0 -i 64 -a 0 -x {0.1 2.1 5 ------- null}
+ -t 0.2232 -s 2 -d 0 -p tcp -e 1040 -c 0 -i 71 -a 0 -x {2.1 0.1 6 ---A--- null}
r -t 0.22488 -s 0 -d 1 -p tcp -e 1040 -c 0 -i 60 -a 0 -x {0.0 1.0 11 ------- null}
+ -t 0.22488 -s 1 -d 0 -p ack -e 40 -c 0 -i 72 -a 0 -x {1.0 0.0 4 ------- null}
- -t 0.22488 -s 1 -d 0 -p ack -e 40 -c 0 -i 72 -a 0 -x {1.0 0.0 4 ------- null}
h -t 0.22488 -s 1 -d 0 -p ack -e 40 -c 0 -i 72 -a 0 -x {1.0 0.0 -1 ------- null}
- -t 0.22784 -s 1 -d 2 -p tcp -e 1040 -c 0 -i 70 -a 0 -x {1.1 2.0 6 ---A--- null}
h -t 0.22784 -s 1 -d 2 -p tcp -e 1040 -c 0 -i 70 -a 0 -x {1.1 2.0 -1 ---A--- null}
- -t 0.22784 -s 2 -d 0 -p tcp -e 1040 -c 0 -i 71 -a 0 -x {2.1 0.1 6 ---A--- null}
h -t 0.22784 -s 2 -d 0 -p tcp -e 1040 -c 0 -i 71 -a 0 -x {2.1 0.1 -1 ---A--- null}
r -t 0.22952 -s 1 -d 2 -p tcp -e 1040 -c 0 -i 61 -a 0 -x {1.1 2.0 13 ------- null}
+ -t 0.22952 -s 2 -d 1 -p ack -e 40 -c 0 -i 73 -a 0 -x {2.0 1.1 5 ------- null}
- -t 0.22952 -s 2 -d 1 -p ack -e 40 -c 0 -i 73 -a 0 -x {2.0 1.1 5 ------- null}
h -t 0.22952 -s 2 -d 1 -p ack -e 40 -c 0 -i 73 -a 0 -x {2.0 1.1 -1 ------- null}
r -t 0.22952 -s 2 -d 0 -p tcp -e 1040 -c 0 -i 62 -a 0 -x {2.1 0.1 13 ------- null}
+ -t 0.22952 -s 0 -d 2 -p ack -e 40 -c 0 -i 74 -a 0 -x {0.1 2.1 5 ------- null}
- -t 0.22952 -s 0 -d 2 -p ack -e 40 -c 0 -i 74 -a 0 -x {0.1 2.1 5 ------- null}
h -t 0.22952 -s 0 -d 2 -p ack -e 40 -c 0 -i 74 -a 0 -x {0.1 2.1 -1 ------- null}
r -t 0.23152 -s 2 -d 1 -p ack -e 40 -c 0 -i 68 -a 0 -x {2.0 1.1 5 ------- null}
r -t 0.23152 -s 0 -d 2 -p ack -e 40 -c 0 -i 69 -a 0 -x {0.1 2.1 5 ------- null}
r -t 0.2332 -s 0 -d 1 -p tcp -e 1040 -c 0 -i 65 -a 0 -x {0.0 1.0 12 ------- null}
+ -t 0.2332 -s 1 -d 0 -p ack -e 40 -c 0 -i 75 -a 0 -x {1.0 0.0 4 ------- null}
- -t 0.2332 -s 1 -d 0 -p ack -e 40 -c 0 -i 75 -a 0 -x {1.0 0.0 4 ------- null}
h -t 0.2332 -s 1 -d 0 -p ack -e 40 -c 0 -i 75 -a 0 -x {1.0 0.0 -1 ------- null}
r -t 0.2352 -s 1 -d 0 -p ack -e 40 -c 0 -i 72 -a 0 -x {1.0 0.0 4 ------- null}
+ -t 0.2352 -s 0 -d 1 -p tcp -e 1040 -c 0 -i 76 -a 0 -x {0.0 1.0 5 ---A--- null}
- -t 0.2352 -s 0 -d 1 -p tcp -e 1040 -c 0 -i 76 -a 0 -x {0.0 1.0 5 ---A--- null}
h -t 0.2352 -s 0 -d 1 -p tcp -e 1040 -c 0 -i 76 -a 0 -x {0.0 1.0 -1 ---A--- null}
r -t 0.23784 -s 1 -d 2 -p tcp -e 1040 -c 0 -i 66 -a 0 -x {1.1 2.0 14 ------- null}
+ -t 0.23784 -s 2 -d 1 -p ack -e 40 -c 0 -i 77 -a 0 -x {2.0 1.1 5 ------- null}
- -t 0.23784 -s 2 -d 1 -p ack -e 40 -c 0 -i 77 -a 0 -x {2.0 1.1 5 ------- null}
h -t 0.23784 -s 2 -d 1 -p ack -e 40 -c 0 -i 77 -a 0 -x {2.0 1.1 -1 ------- null}
r -t 0.23784 -s 2 -d 0 -p tcp -e 1040 -c 0 -i 67 -a 0 -x {2.1 0.1 14 ------- null}
+ -t 0.23784 -s 0 -d 2 -p ack -e 40 -c 0 -i 78 -a 0 -x {0.1 2.1 5 ------- null}
- -t 0.23784 -s 0 -d 2 -p ack -e 40 -c 0 -i 78 -a 0 -x {0.1 2.1 5 ------- null}
h -t 0.23784 -s 0 -d 2 -p ack -e 40 -c 0 -i 78 -a 0 -x {0.1 2.1 -1 ------- null}
r -t 0.23984 -s 2 -d 1 -p ack -e 40 -c 0 -i 73 -a 0 -x {2.0 1.1 5 ------- null}
r -t 0.23984 -s 0 -d 2 -p ack -e 40 -c 0 -i 74 -a 0 -x {0.1 2.1 5 ------- null}
r -t 0.24352 -s 1 -d 0 -p ack -e 40 -c 0 -i 75 -a 0 -x {1.0 0.0 4 ------- null}
r -t 0.24616 -s 1 -d 2 -p tcp -e 1040 -c 0 -i 70 -a 0 -x {1.1 2.0 6 ---A--- null}
+ -t 0.24616 -s 2 -d 1 -p ack -e 40 -c 0 -i 79 -a 0 -x {2.0 1.1 9 ------- null}
- -t 0.24616 -s 2 -d 1 -p ack -e 40 -c 0 -i 79 -a 0 -x {2.0 1.1 9 ------- null}
h -t 0.24616 -s 2 -d 1 -p ack -e 40 -c 0 -i 79 -a 0 -x {2.0 1.1 -1 ------- null}
r -t 0.24616 -s 2 -d 0 -p tcp -e 1040 -c 0 -i 71 -a 0 -x {2.1 0.1 6 ---A--- null}
+ -t 0.24616 -s 0 -d 2 -p ack -e 40 -c 0 -i 80 -a 0 -x {0.1 2.1 9 ------- null}
- -t 0.24616 -s 0 -d 2 -p ack -e 40 -c 0 -i 80 -a 0 -x {0.1 2.1 9 ------- null}
h -t 0.24616 -s 0 -d 2 -p ack -e 40 -c 0 -i 80 -a 0 -x {0.1 2.1 -1 ------- null}
r -t 0.24816 -s 2 -d 1 -p ack -e 40 -c 0 -i 77 -a 0 -x {2.0 1.1 5 ------- null}
r -t 0.24816 -s 0 -d 2 -p ack -e 40 -c 0 -i 78 -a 0 -x {0.1 2.1 5 ------- null}
r -t 0.25352 -s 0 -d 1 -p tcp -e 1040 -c 0 -i 76 -a 0 -x {0.0 1.0 5 ---A--- null}
+ -t 0.25352 -s 1 -d 0 -p ack -e 40 -c 0 -i 81 -a 0 -x {1.0 0.0 5 ------- null}
- -t 0.25352 -s 1 -d 0 -p ack -e 40 -c 0 -i 81 -a 0 -x {1.0 0.0 5 ------- null}
h -t 0.25352 -s 1 -d 0 -p ack -e 40 -c 0 -i 81 -a 0 -x {1.0 0.0 -1 ------- null}
r -t 0.25648 -s 2 -d 1 -p ack -e 40 -c 0 -i 79 -a 0 -x {2.0 1.1 9 ------- null}
+ -t 0.25648 -s 1 -d 2 -p tcp -e 1040 -c 0 -i 82 -a 0 -x {1.1 2.0 10 ------- null}
- -t 0.25648 -s 1 -d 2 -p tcp -e 1040 -c 0 -i 82 -a 0 -x {1.1 2.0 10 ------- null}
h -t 0.25648 -s 1 -d 2 -p tcp -e 1040 -c 0 -i 82 -a 0 -x {1.1 2.0 -1 ------- null}
+ -t 0.25648 -s 1 -d 2 -p tcp -e 1040 -c 0 -i 83 -a 0 -x {1.1 2.0 11 ------- null}
r -t 0.25648 -s 0 -d 2 -p ack -e 40 -c 0 -i 80 -a 0 -x {0.1 2.1 9 ------- null}
+ -t 0.25648 -s 2 -d 0 -p tcp -e 1040 -c 0 -i 84 -a 0 -x {2.1 0.1 10 ------- null}
- -t 0.25648 -s 2 -d 0 -p tcp -e 1040 -c 0 -i 84 -a 0 -x {2.1 0.1 10 ------- null}
h -t 0.25648 -s 2 -d 0 -p tcp -e 1040 -c 0 -i 84 -a 0 -x {2.1 0.1 -1 ------- null}
+ -t 0.25648 -s 2 -d 0 -p tcp -e 1040 -c 0 -i 85 -a 0 -x {2.1 0.1 11 ------- null}
r -t 0.26384 -s 1 -d 0 -p ack -e 40 -c 0 -i 81 -a 0 -x {1.0 0.0 5 ------- null}
+ -t 0.26384 -s 0 -d 1 -p tcp -e 1040 -c 0 -i 86 -a 0 -x {0.0 1.0 6 ------- null}
- -t 0.26384 -s 0 -d 1 -p tcp -e 1040 -c 0 -i 86 -a 0 -x {0.0 1.0 6 ------- null}
h -t 0.26384 -s 0 -d 1 -p tcp -e 1040 -c 0 -i 86 -a 0 -x {0.0 1.0 -1 ------- null}
+ -t 0.26384 -s 0 -d 1 -p tcp -e 1040 -c 0 -i 87 -a 0 -x {0.0 1.0 7 ------- null}
- -t 0.2648 -s 1 -d 2 -p tcp -e 1040 -c 0 -i 83 -a 0 -x {1.1 2.0 11 ------- null}
h -t 0.2648 -s 1 -d 2 -p tcp -e 1040 -c 0 -i 83 -a 0 -x {1.1 2.0 -1 ------- null}
- -t 0.2648 -s 2 -d 0 -p tcp -e 1040 -c 0 -i 85 -a 0 -x {2.1 0.1 11 ------- null}
h -t 0.2648 -s 2 -d 0 -p tcp -e 1040 -c 0 -i 85 -a 0 -x {2.1 0.1 -1 ------- null}
- -t 0.27216 -s 0 -d 1 -p tcp -e 1040 -c 0 -i 87 -a 0 -x {0.0 1.0 7 ------- null}
h -t 0.27216 -s 0 -d 1 -p tcp -e 1040 -c 0 -i 87 -a 0 -x {0.0 1.0 -1 ------- null}
r -t 0.2748 -s 1 -d 2 -p tcp -e 1040 -c 0 -i 82 -a 0 -x {1.1 2.0 10 ------- null}
+ -t 0.2748 -s 2 -d 1 -p ack -e 40 -c 0 -i 88 -a 0 -x {2.0 1.1 11 ------- null}
- -t 0.2748 -s 2 -d 1 -p ack -e 40 -c 0 -i 88 -a 0 -x {2.0 1.1 11 ------- null}
h -t 0.2748 -s 2 -d 1 -p ack -e 40 -c 0 -i 88 -a 0 -x {2.0 1.1 -1 ------- null}
r -t 0.2748 -s 2 -d 0 -p tcp -e 1040 -c 0 -i 84 -a 0 -x {2.1 0.1 10 ------- null}
+ -t 0.2748 -s 0 -d 2 -p ack -e 40 -c 0 -i 89 -a 0 -x {0.1 2.1 11 ------- null}
- -t 0.2748 -s 0 -d 2 -p ack -e 40 -c 0 -i 89 -a 0 -x {0.1 2.1 11 ------- null}
h -t 0.2748 -s 0 -d 2 -p ack -e 40 -c 0 -i 89 -a 0 -x {0.1 2.1 -1 ------- null}
r -t 0.28216 -s 0 -d 1 -p tcp -e 1040 -c 0 -i 86 -a 0 -x {0.0 1.0 6 ------- null}
+ -t 0.28216 -s 1 -d 0 -p ack -e 40 -c 0 -i 90 -a 0 -x {1.0 0.0 8 ------- null}
- -t 0.28216 -s 1 -d 0 -p ack -e 40 -c 0 -i 90 -a 0 -x {1.0 0.0 8 ------- null}
h -t 0.28216 -s 1 -d 0 -p ack -e 40 -c 0 -i 90 -a 0 -x {1.0 0.0 -1 ------- null}
r -t 0.28312 -s 1 -d 2 -p tcp -e 1040 -c 0 -i 83 -a 0 -x {1.1 2.0 11 ------- null}
+ -t 0.28312 -s 2 -d 1 -p ack -e 40 -c 0 -i 91 -a 0 -x {2.0 1.1 11 ------- null}
- -t 0.28312 -s 2 -d 1 -p ack -e 40 -c 0 -i 91 -a 0 -x {2.0 1.1 11 ------- null}
h -t 0.28312 -s 2 -d 1 -p ack -e 40 -c 0 -i 91 -a 0 -x {2.0 1.1 -1 ------- null}
r -t 0.28312 -s 2 -d 0 -p tcp -e 1040 -c 0 -i 85 -a 0 -x {2.1 0.1 11 ------- null}
+ -t 0.28312 -s 0 -d 2 -p ack -e 40 -c 0 -i 92 -a 0 -x {0.1 2.1 11 ------- null}
- -t 0.28312 -s 0 -d 2 -p ack -e 40 -c 0 -i 92 -a 0 -x {0.1 2.1 11 ------- null}
h -t 0.28312 -s 0 -d 2 -p ack -e 40 -c 0 -i 92 -a 0 -x {0.1 2.1 -1 ------- null}
r -t 0.28512 -s 2 -d 1 -p ack -e 40 -c 0 -i 88 -a 0 -x {2.0 1.1 11 ------- null}
+ -t 0.28512 -s 1 -d 2 -p tcp -e 1040 -c 0 -i 93 -a 0 -x {1.1 2.0 12 ------- null}
- -t 0.28512 -s 1 -d 2 -p tcp -e 1040 -c 0 -i 93 -a 0 -x {1.1 2.0 12 ------- null}
h -t 0.28512 -s 1 -d 2 -p tcp -e 1040 -c 0 -i 93 -a 0 -x {1.1 2.0 -1 ------- null}
+ -t 0.28512 -s 1 -d 2 -p tcp -e 1040 -c 0 -i 94 -a 0 -x {1.1 2.0 13 ------- null}
+ -t 0.28512 -s 1 -d 2 -p tcp -e 1040 -c 0 -i 95 -a 0 -x {1.1 2.0 14 ------- null}
r -t 0.28512 -s 0 -d 2 -p ack -e 40 -c 0 -i 89 -a 0 -x {0.1 2.1 11 ------- null}
+ -t 0.28512 -s 2 -d 0 -p tcp -e 1040 -c 0 -i 96 -a 0 -x {2.1 0.1 12 ------- null}
- -t 0.28512 -s 2 -d 0 -p tcp -e 1040 -c 0 -i 96 -a 0 -x {2.1 0.1 12 ------- null}
h -t 0.28512 -s 2 -d 0 -p tcp -e 1040 -c 0 -i 96 -a 0 -x {2.1 0.1 -1 ------- null}
+ -t 0.28512 -s 2 -d 0 -p tcp -e 1040 -c 0 -i 97 -a 0 -x {2.1 0.1 13 ------- null}
+ -t 0.28512 -s 2 -d 0 -p tcp -e 1040 -c 0 -i 98 -a 0 -x {2.1 0.1 14 ------- null}
r -t 0.29048 -s 0 -d 1 -p tcp -e 1040 -c 0 -i 87 -a 0 -x {0.0 1.0 7 ------- null}
+ -t 0.29048 -s 1 -d 0 -p ack -e 40 -c 0 -i 99 -a 0 -x {1.0 0.0 8 ------- null}
- -t 0.29048 -s 1 -d 0 -p ack -e 40 -c 0 -i 99 -a 0 -x {1.0 0.0 8 ------- null}
h -t 0.29048 -s 1 -d 0 -p ack -e 40 -c 0 -i 99 -a 0 -x {1.0 0.0 -1 ------- null}
r -t 0.29248 -s 1 -d 0 -p ack -e 40 -c 0 -i 90 -a 0 -x {1.0 0.0 8 ------- null}
+ -t 0.29248 -s 0 -d 1 -p tcp -e 1040 -c 0 -i 100 -a 0 -x {0.0 1.0 9 ------- null}
- -t 0.29248 -s 0 -d 1 -p tcp -e 1040 -c 0 -i 100 -a 0 -x {0.0 1.0 9 ------- null}